TITLE = PHILL
VARIABLES = "X" ,  "Y" , "ub" , "vb" , "pb" , "nutb" , "nuT" 
ZONE   N=31752,E=62750,F=FEPOINT,ET=TRIANGLE
-0.0864167 0 7.96483e-41 3.22012e-39 14.0101 -3.82578e-43 4.22755e-159
-0.0846883 0 -2.66302e-40 -1.86654e-39 13.8464 -8.88282e-44 1.22861e-161
-0.08296 0 -7.14897e-40 2.77549e-39 13.9047 -1.66183e-42 1.50505e-156
-0.0812317 0 3.16689e-40 1.24891e-40 14.226 3.29147e-42 2.31617e-155
-0.0795033 0 -1.98514e-40 -2.27827e-39 14.3775 -3.68206e-42 3.62723e-155
-0.077775 0 1.72654e-40 7.34213e-40 14.6198 2.66403e-42 9.93954e-156
-0.0760467 0 -2.00828e-42 -1.52019e-39 14.7255 -1.40434e-42 7.67536e-157
-0.0743183 0 7.90736e-41 3.24628e-41 14.8982 5.71986e-43 2.11229e-158
-0.07259 0 -6.46142e-42 -6.2858e-40 15.0115 -1.54529e-43 1.12524e-160
-0.0708617 0 4.33211e-41 3.81416e-43 15.1794 9.73979e-44 1.77586e-161
-0.0691333 0 7.8284e-42 -4.14256e-40 15.3232 -1.74788e-44 1.84185e-164
-0.067405 0 3.46884e-41 -8.72372e-41 15.5067 1.97708e-44 3.01516e-164
-0.0656767 0 1.67338e-41 -3.14747e-40 15.6817 -6.31628e-45 3.1409e-166
-0.0639483 0 3.44179e-41 -1.40623e-40 15.8857 1.2594e-44 4.96439e-165
-0.06222 0 2.68454e-41 -3.07581e-40 16.0894 6.2939e-45 3.09663e-166
-0.0604917 0 3.81245e-41 -2.16642e-40 16.3159 1.92979e-44 2.73682e-164
-0.0587633 0 3.24166e-41 -3.09131e-40 16.547 1.66186e-44 1.50519e-164
-0.057035 0 3.71892e-41 -2.34556e-40 16.7974 2.42609e-44 6.83657e-164
-0.0553067 0 3.165e-41 -2.76577e-40 17.056 2.18029e-44 4.45933e-164
-0.0535783 0 3.30906e-41 -2.22542e-40 17.3319 2.6205e-44 9.30568e-164
-0.05185 0 2.85151e-41 -2.4663e-40 17.6184 2.3718e-44 6.24487e-164
-0.0501217 0 2.84987e-41 -2.12427e-40 17.9214 2.58007e-44 8.74454e-164
-0.0483933 0 2.46903e-41 -2.26889e-40 18.2369 2.28512e-44 5.38074e-164
-0.046665 0 2.37151e-41 -2.0347e-40 18.5687 2.28238e-44 5.35507e-164
-0.0449367 0 2.0316e-41 -2.10007e-40 18.9145 1.91442e-44 2.6507e-164
-0.0432083 0 1.87533e-41 -1.92311e-40 19.2769 1.73202e-44 1.77593e-164
-0.04148 0 1.57486e-41 -1.93867e-40 19.6546 1.31014e-44 5.8141e-165
-0.0397517 0 1.40092e-41 -1.80537e-40 20.0497 1.00748e-44 2.03305e-165
-0.0380233 0 1.14777e-41 -1.79917e-40 20.4613 5.83531e-45 2.28805e-166
-0.036295 0 9.79454e-42 -1.70379e-40 20.8913 2.27691e-45 5.30387e-168
-0.0345667 0 7.67242e-42 -1.69074e-40 21.3391 -1.46803e-45 9.16541e-169
-0.0328383 0 5.9953e-42 -1.62625e-40 21.8064 -5.16149e-45 1.40058e-166
-0.03111 0 3.92509e-42 -1.61338e-40 22.2928 -8.26178e-45 9.194e-166
-0.0293817 0 1.63961e-42 -1.57641e-40 22.8003 -1.21919e-44 4.36003e-165
-0.0276533 0 -1.33752e-42 -1.5545e-40 23.3282 -1.44918e-44 8.70353e-165
-0.025925 0 -3.34793e-42 -1.44398e-40 23.8791 -1.70972e-44 1.6862e-164
-0.0241967 0 1.77655e-42 -1.21682e-40 24.4517 -1.30477e-44 5.71938e-165
-0.0224683 0 2.03152e-41 -1.30039e-40 25.0496 -1.77986e-44 1.98038e-164
-0.02074 0 4.50615e-41 -2.20425e-40 25.6705 -4.92581e-44 1.16177e-162
-0.0190117 0 5.61112e-41 -3.48604e-40 26.3195 -9.46919e-44 1.58658e-161
-0.0172833 0 4.67608e-41 -4.04909e-40 26.993 -8.30505e-44 9.38814e-162
-0.015555 0 2.39836e-41 -3.64561e-40 27.6978 -3.10645e-44 1.83767e-163
-0.0138267 0 2.89811e-42 -2.61827e-40 28.4284 3.13752e-44 1.91229e-163
-0.0120983 0 -1.25821e-41 -1.4608e-40 29.1946 5.33856e-44 1.60289e-162
-0.01037 0 -9.24927e-42 -5.83176e-41 29.9879 5.55375e-44 1.87739e-162
-0.00864167 0 -5.34358e-42 -2.90876e-41 30.8215 1.43672e-44 8.40802e-165
-0.00691333 0 4.49162e-42 -2.20768e-40 31.6842 -3.0976e-44 1.81681e-163
-0.005185 0 -6.1513e-42 -2.32065e-41 32.592 -3.2254e-44 2.13571e-163
-0.00345667 0 1.56188e-41 6.37207e-41 33.5336 1.32673e-43 6.11415e-161
-0.00172833 0 1.00694e-41 -9.16634e-40 34.5188 -2.50502e-43 7.77059e-160
0 0 -7.1816e-41 7.49068e-40 35.5571 1.59292e-44 1.27055e-164
-0.0864167 5.02236e-05 0.965677 0.00010007 14.0117 2.62928e-05 9.39726e-08
-0.0846883 5.02236e-05 0.931069 0.000682276 13.8491 7.5403e-06 6.37863e-10
-0.08296 5.02236e-05 0.899211 0.000103933 13.9043 1.52194e-05 1.05804e-08
-0.0812317 5.02236e-05 0.899842 -7.34744e-05 14.2261 1.32074e-05 6.00182e-09
-0.0795033 5.02236e-05 0.9131 -0.000198208 14.3769 1.39644e-05 7.5e-09
-0.077775 5.02236e-05 0.921076 -4.37059e-05 14.6196 1.37809e-05 7.11372e-09
-0.0760467 5.02236e-05 0.925612 -4.23863e-05 14.7255 1.38503e-05 7.25809e-09
-0.0743183 5.02236e-05 0.923312 5.53763e-05 14.8983 1.38088e-05 7.17147e-09
-0.07259 5.02236e-05 0.919289 4.73919e-05 15.0117 1.37816e-05 7.11522e-09
-0.0708617 5.02236e-05 0.912562 8.56781e-05 15.1796 1.37377e-05 7.02488e-09
-0.0691333 5.02236e-05 0.905796 7.39076e-05 15.3234 1.36931e-05 6.9343e-09
-0.067405 5.02236e-05 0.898016 9.05407e-05 15.507 1.36445e-05 6.83635e-09
-0.0656767 5.02236e-05 0.890445 8.27259e-05 15.6819 1.35951e-05 6.73783e-09
-0.0639483 5.02236e-05 0.88232 9.22626e-05 15.886 1.35434e-05 6.63596e-09
-0.06222 5.02236e-05 0.874276 8.8494e-05 16.0897 1.34906e-05 6.53311e-09
-0.0604917 5.02236e-05 0.86581 9.52077e-05 16.3162 1.34357e-05 6.42751e-09
-0.0587633 5.02236e-05 0.857287 9.41677e-05 16.5473 1.33793e-05 6.32036e-09
-0.057035 5.02236e-05 0.848388 9.95435e-05 16.7978 1.33208e-05 6.2105e-09
-0.0553067 5.02236e-05 0.839331 0.000100284 17.0563 1.32604e-05 6.09861e-09
-0.0535783 5.02236e-05 0.829909 0.000105035 17.3323 1.31976e-05 5.98395e-09
-0.05185 5.02236e-05 0.820252 0.000107015 17.6188 1.31325e-05 5.86688e-09
-0.0501217 5.02236e-05 0.810224 0.000111556 17.9218 1.30648e-05 5.74692e-09
-0.0483933 5.02236e-05 0.799897 0.000114483 18.2373 1.29945e-05 5.62427e-09
-0.046665 5.02236e-05 0.789177 0.000119075 18.5691 1.29213e-05 5.49859e-09
-0.0449367 5.02236e-05 0.778101 0.000122801 18.9149 1.28451e-05 5.36997e-09
-0.0432083 5.02236e-05 0.766602 0.000127625 19.2773 1.27655e-05 5.23818e-09
-0.04148 5.02236e-05 0.754689 0.0001321 19.6551 1.26824e-05 5.10325e-09
-0.0397517 5.02236e-05 0.742312 0.000137293 20.0502 1.25957e-05 4.96502e-09
-0.0380233 5.02236e-05 0.729462 0.000142536 20.4618 1.25049e-05 4.82346e-09
-0.036295 5.02236e-05 0.716099 0.000148213 20.8918 1.24098e-05 4.67847e-09
-0.0345667 5.02236e-05 0.702195 0.000154305 21.3396 1.23101e-05 4.52999e-09
-0.0328383 5.02236e-05 0.687718 0.000160576 21.8069 1.22055e-05 4.37796e-09
-0.03111 5.02236e-05 0.672624 0.000167659 22.2933 1.20955e-05 4.22231e-09
-0.0293817 5.02236e-05 0.656886 0.000174634 22.8009 1.19797e-05 4.06302e-09
-0.0276533 5.02236e-05 0.640438 0.000182928 23.3288 1.18577e-05 3.89999e-09
-0.025925 5.02236e-05 0.623259 0.000190727 23.8797 1.17288e-05 3.73326e-09
-0.0241967 5.02236e-05 0.605258 0.000200543 24.4524 1.15925e-05 3.56273e-09
-0.0224683 5.02236e-05 0.586421 0.00020931 25.0503 1.1448e-05 3.38848e-09
-0.02074 5.02236e-05 0.56662 0.00022109 25.6713 1.12945e-05 3.2104e-09
-0.0190117 5.02236e-05 0.545854 0.000231019 26.3203 1.11312e-05 3.02871e-09
-0.0172833 5.02236e-05 0.523943 0.000245371 26.9938 1.09567e-05 2.84322e-09
-0.015555 5.02236e-05 0.500897 0.000256786 27.6987 1.07699e-05 2.65432e-09
-0.0138267 5.02236e-05 0.47647 0.000274535 28.4293 1.05691e-05 2.46182e-09
-0.0120983 5.02236e-05 0.450676 0.000288075 29.1956 1.03527e-05 2.26634e-09
-0.01037 5.02236e-05 0.42319 0.000310359 29.9889 1.01179e-05 2.06765e-09
-0.00864167 5.02236e-05 0.393976 0.000327222 30.8226 9.86259e-06 1.86677e-09
-0.00691333 5.02236e-05 0.362669 0.00035655 31.6854 9.58233e-06 1.66348e-09
-0.005185 5.02236e-05 0.328979 0.00037541 32.5932 9.27354e-06 1.45923e-09
-0.00345667 5.02236e-05 0.292926 0.000426338 33.5351 8.9327e-06 1.25626e-09
-0.00172833 5.02236e-05 0.253446 0.000392252 34.5196 8.54943e-06 1.05416e-09
0 5.02236e-05 0.207085 0.00159461 35.5569 8.13741e-06 8.65185e-10
-0.0864167 0.000102464 1.96075 0.000396118 14.0019 4.41287e-05 7.35852e-07
-0.0846883 0.000102464 1.89127 0.00312701 13.8546 2.11255e-05 3.92312e-08
-0.08296 0.000102464 1.84361 0.000331918 13.902 2.96358e-05 1.51443e-07
-0.0812317 0.000102464 1.84907 -0.00046737 14.227 2.77491e-05 1.16514e-07
-0.0795033 0.000102464 1.8739 -0.000762282 14.3765 2.8483e-05 1.29294e-07
-0.077775 0.000102464 1.88838 -0.00028842 14.6197 2.83129e-05 1.26244e-07
-0.0760467 0.000102464 1.89535 -7.07874e-05 14.7254 2.83447e-05 1.26809e-07
-0.0743183 0.000102464 1.89061 0.000234266 14.8983 2.82752e-05 1.25573e-07
-0.07259 0.000102464 1.88227 0.000305564 15.0117 2.82118e-05 1.24455e-07
-0.0708617 0.000102464 1.86943 0.000409525 15.1796 2.81331e-05 1.23076e-07
-0.0691333 0.000102464 1.8562 0.000412125 15.3235 2.80506e-05 1.21645e-07
-0.067405 0.000102464 1.84131 0.00045088 15.507 2.79636e-05 1.20147e-07
-0.0656767 0.000102464 1.82658 0.000447023 15.682 2.78735e-05 1.1861e-07
-0.0639483 0.000102464 1.81094 0.000470346 15.886 2.77801e-05 1.17034e-07
-0.06222 0.000102464 1.7953 0.000472521 16.0897 2.76837e-05 1.15422e-07
-0.0604917 0.000102464 1.77893 0.000492216 16.3162 2.75839e-05 1.13773e-07
-0.0587633 0.000102464 1.76236 0.000500114 16.5474 2.74807e-05 1.12085e-07
-0.057035 0.000102464 1.74511 0.000519101 16.7978 2.73738e-05 1.10356e-07
-0.0553067 0.000102464 1.72749 0.000531333 17.0563 2.7263e-05 1.08585e-07
-0.0535783 0.000102464 1.7092 0.00055079 17.3323 2.71479e-05 1.06769e-07
-0.05185 0.000102464 1.69041 0.000566516 17.6188 2.70284e-05 1.04907e-07
-0.0501217 0.000102464 1.67091 0.000587162 17.9218 2.69041e-05 1.02996e-07
-0.0483933 0.000102464 1.65081 0.000605989 18.2373 2.67748e-05 1.01035e-07
-0.046665 0.000102464 1.62995 0.000628351 18.5691 2.66401e-05 9.90224e-08
-0.0449367 0.000102464 1.60838 0.000650178 18.9149 2.64996e-05 9.69558e-08
-0.0432083 0.000102464 1.58598 0.000674712 19.2774 2.6353e-05 9.48335e-08
-0.04148 0.000102464 1.56276 0.000699651 19.6551 2.61998e-05 9.26538e-08
-0.0397517 0.000102464 1.53864 0.000726807 20.0502 2.60397e-05 9.04149e-08
-0.0380233 0.000102464 1.51358 0.000755157 20.4618 2.5872e-05 8.81151e-08
-0.036295 0.000102464 1.48752 0.00078543 20.8918 2.56964e-05 8.57524e-08
-0.0345667 0.000102464 1.4604 0.000817672 21.3396 2.55122e-05 8.33254e-08
-0.0328383 0.000102464 1.43214 0.000851638 21.807 2.53187e-05 8.0832e-08
-0.03111 0.000102464 1.40268 0.000888465 22.2934 2.51152e-05 7.82707e-08
-0.0293817 0.000102464 1.37195 0.000926827 22.8009 2.49009e-05 7.56394e-08
-0.0276533 0.000102464 1.33982 0.000969199 23.3288 2.46749e-05 7.29369e-08
-0.025925 0.000102464 1.30626 0.00101284 23.8797 2.44362e-05 7.01609e-08
-0.0241967 0.000102464 1.27108 0.00106208 24.4524 2.41836e-05 6.73104e-08
-0.0224683 0.000102464 1.23425 0.00111216 25.0503 2.39157e-05 6.43831e-08
-0.02074 0.000102464 1.19554 0.0011701 25.6713 2.36311e-05 6.13783e-08
-0.0190117 0.000102464 1.1549 0.00122819 26.3203 2.33279e-05 5.82942e-08
-0.0172833 0.000102464 1.11203 0.00129746 26.9938 2.30041e-05 5.51301e-08
-0.015555 0.000102464 1.0669 0.00136586 27.6987 2.26572e-05 5.18851e-08
-0.0138267 0.000102464 1.01908 0.0014503 28.4294 2.22844e-05 4.85585e-08
-0.0120983 0.000102464 0.968517 0.00153267 29.1956 2.18823e-05 4.51524e-08
-0.01037 0.000102464 0.914647 0.00163848 29.989 2.14463e-05 4.16651e-08
-0.00864167 0.000102464 0.857328 0.00174069 30.8227 2.09721e-05 3.81055e-08
-0.00691333 0.000102464 0.795881 0.00188028 31.6855 2.04523e-05 3.447e-08
-0.005185 0.000102464 0.729735 0.00200417 32.5932 1.98808e-05 3.07802e-08
-0.00345667 0.000102464 0.658725 0.00220378 33.5354 1.92516e-05 2.70686e-08
-0.00172833 0.000102464 0.581223 0.00204681 34.5205 1.85513e-05 2.3343e-08
0 0.000102464 0.489372 0.00442346 35.5585 1.7804e-05 1.98061e-08
-0.0864167 0.000156802 2.95564 0.000878658 13.9674 6.02735e-05 2.49657e-06
-0.0846883 0.000156802 2.86755 0.00657669 13.8681 3.66104e-05 3.51108e-07
-0.08296 0.000156802 2.8242 0.000394671 13.8975 4.44659e-05 7.58312e-07
-0.0812317 0.000156802 2.84048 -0.0011984 14.2282 4.32736e-05 6.81103e-07
-0.0795033 0.000156802 2.87527 -0.00158038 14.376 4.37819e-05 7.13271e-07
-0.077775 0.000156802 2.89389 -0.000650204 14.6196 4.35862e-05 7.00758e-07
-0.0760467 0.000156802 2.9008 -6.81546e-05 14.7255 4.35124e-05 6.96076e-07
-0.0743183 0.000156802 2.89303 0.000520041 14.8984 4.33912e-05 6.88445e-07
-0.07259 0.000156802 2.88016 0.000726525 15.0119 4.32822e-05 6.81638e-07
-0.0708617 0.000156802 2.86183 0.00091578 15.1797 4.31727e-05 6.74845e-07
-0.0691333 0.000156802 2.84269 0.000951319 15.3236 4.30599e-05 6.67904e-07
-0.067405 0.000156802 2.82154 0.00101706 15.5072 4.29452e-05 6.60895e-07
-0.0656767 0.000156802 2.80036 0.00102663 15.6821 4.28251e-05 6.53617e-07
-0.0639483 0.000156802 2.77803 0.00106739 15.8862 4.27017e-05 6.46204e-07
-0.06222 0.000156802 2.75553 0.0010834 16.0899 4.2573e-05 6.38534e-07
-0.0604917 0.000156802 2.73207 0.001121 16.3163 4.24403e-05 6.30697e-07
-0.0587633 0.000156802 2.7082 0.00114578 16.5475 4.23021e-05 6.22612e-07
-0.057035 0.000156802 2.68341 0.00118472 16.7979 4.21591e-05 6.14329e-07
-0.0553067 0.000156802 2.65801 0.00121691 17.0565 4.20103e-05 6.05793e-07
-0.0535783 0.000156802 2.63167 0.00125874 17.3325 4.18559e-05 5.9703e-07
-0.05185 0.000156802 2.60456 0.00129741 17.619 4.16951e-05 5.88003e-07
-0.0501217 0.000156802 2.57644 0.00134309 17.922 4.15278e-05 5.78724e-07
-0.0483933 0.000156802 2.54741 0.00138793 18.2375 4.13534e-05 5.69163e-07
-0.046665 0.000156802 2.51729 0.00143827 18.5693 4.11717e-05 5.59326e-07
-0.0449367 0.000156802 2.48611 0.00148939 18.9151 4.0982e-05 5.4919e-07
-0.0432083 0.000156802 2.45373 0.00154519 19.2776 4.07839e-05 5.38753e-07
-0.04148 0.000156802 2.42015 0.00160305 19.6553 4.05768e-05 5.27998e-07
-0.0397517 0.000156802 2.38524 0.00166523 20.0505 4.03601e-05 5.16919e-07
-0.0380233 0.000156802 2.34896 0.0017306 20.4621 4.01332e-05 5.055e-07
-0.036295 0.000156802 2.31121 0.00180024 20.8921 3.98954e-05 4.93731e-07
-0.0345667 0.000156802 2.2719 0.00187428 21.3399 3.96457e-05 4.81601e-07
-0.0328383 0.000156802 2.23094 0.00195272 21.8072 3.93834e-05 4.69095e-07
-0.03111 0.000156802 2.18821 0.00203699 22.2937 3.91076e-05 4.56202e-07
-0.0293817 0.000156802 2.14361 0.00212592 22.8012 3.88169e-05 4.42905e-07
-0.0276533 0.000156802 2.09698 0.00222253 23.3292 3.85104e-05 4.29195e-07
-0.025925 0.000156802 2.04822 0.00232415 23.8801 3.81865e-05 4.1505e-07
-0.0241967 0.000156802 1.99711 0.002436 24.4527 3.78437e-05 4.00465e-07
-0.0224683 0.000156802 1.94355 0.00255319 25.0507 3.74801e-05 3.85409e-07
-0.02074 0.000156802 1.88724 0.00268428 25.6717 3.70939e-05 3.69884e-07
-0.0190117 0.000156802 1.82809 0.002821 26.3208 3.66822e-05 3.53853e-07
-0.0172833 0.000156802 1.76567 0.00297708 26.9942 3.6243e-05 3.37321e-07
-0.015555 0.000156802 1.69989 0.00313899 27.6992 3.57722e-05 3.20247e-07
-0.0138267 0.000156802 1.63017 0.00332873 28.4299 3.52666e-05 3.02638e-07
-0.0120983 0.000156802 1.55637 0.00352442 29.1961 3.47213e-05 2.84458e-07
-0.01037 0.000156802 1.47773 0.00376229 29.9895 3.4131e-05 2.65713e-07
-0.00864167 0.000156802 1.39395 0.00400503 30.8232 3.34896e-05 2.464e-07
-0.00691333 0.000156802 1.30407 0.00432007 31.6861 3.27884e-05 2.26506e-07
-0.005185 0.000156802 1.20727 0.00462014 32.5939 3.20211e-05 2.06135e-07
-0.00345667 0.000156802 1.103 0.00512601 33.5357 3.11805e-05 1.85419e-07
-0.00172833 0.000156802 0.989404 0.00517269 34.5207 3.02637e-05 1.64637e-07
0 0.000156802 0.853682 0.00920973 35.5584 2.92903e-05 1.44529e-07
-0.0864167 0.000213321 3.90735 0.00151858 13.8919 7.51219e-05 5.7994e-06
-0.0846883 0.000213321 3.83139 0.00987295 13.8913 5.32705e-05 1.54309e-06
-0.08296 0.000213321 3.81434 -7.86618e-06 13.8915 6.00956e-05 2.46813e-06
-0.0812317 0.000213321 3.84702 -0.00239573 14.23 5.97786e-05 2.41802e-06
-0.0795033 0.000213321 3.88929 -0.00258255 14.3755 5.99576e-05 2.44623e-06
-0.077775 0.000213321 3.90875 -0.00103158 14.6196 5.9602e-05 2.39043e-06
-0.0760467 0.000213321 3.91307 3.754e-05 14.7254 5.93421e-05 2.35023e-06
-0.0743183 0.000213321 3.90162 0.000960592 14.8983 5.91253e-05 2.31707e-06
-0.07259 0.000213321 3.88432 0.00134158 15.012 5.89562e-05 2.29145e-06
-0.0708617 0.000213321 3.8614 0.00162885 15.1798 5.8815e-05 2.27021e-06
-0.0691333 0.000213321 3.83734 0.00171287 15.3237 5.86786e-05 2.24983e-06
-0.067405 0.000213321 3.81114 0.00181117 15.5072 5.85458e-05 2.23011e-06
-0.0656767 0.000213321 3.78467 0.0018442 15.6822 5.84071e-05 2.20964e-06
-0.0639483 0.000213321 3.75689 0.00190797 15.8863 5.82656e-05 2.18891e-06
-0.06222 0.000213321 3.72873 0.0019468 16.09 5.8117e-05 2.1673e-06
-0.0604917 0.000213321 3.69943 0.00200907 16.3164 5.79641e-05 2.1452e-06
-0.0587633 0.000213321 3.6695 0.00205993 16.5476 5.78041e-05 2.12226e-06
-0.057035 0.000213321 3.63846 0.00212694 16.798 5.76385e-05 2.09871e-06
-0.0553067 0.000213321 3.60657 0.00218893 17.0566 5.74656e-05 2.07432e-06
-0.0535783 0.000213321 3.57351 0.00226257 17.3326 5.72862e-05 2.04922e-06
-0.05185 0.000213321 3.53943 0.00233497 17.6191 5.70989e-05 2.02326e-06
-0.0501217 0.000213321 3.50408 0.00241647 17.9221 5.69039e-05 1.99649e-06
-0.0483933 0.000213321 3.46753 0.00249924 18.2376 5.67004e-05 1.96881e-06
-0.046665 0.000213321 3.4296 0.00258976 18.5695 5.64881e-05 1.94025e-06
-0.0449367 0.000213321 3.3903 0.0026834 18.9152 5.62662e-05 1.91071e-06
-0.0432083 0.000213321 3.34947 0.00278423 19.2777 5.60344e-05 1.88021e-06
-0.04148 0.000213321 3.30708 0.00288974 19.6555 5.57918e-05 1.84866e-06
-0.0397517 0.000213321 3.263 0.00300244 20.0506 5.5538e-05 1.81606e-06
-0.0380233 0.000213321 3.21715 0.00312135 20.4622 5.52719e-05 1.78235e-06
-0.036295 0.000213321 3.16941 0.00324786 20.8922 5.4993e-05 1.74749e-06
-0.0345667 0.000213321 3.11967 0.0033823 21.34 5.47001e-05 1.71143e-06
-0.0328383 0.000213321 3.06779 0.00352508 21.8074 5.43924e-05 1.67411e-06
-0.03111 0.000213321 3.01364 0.0036779 22.2938 5.40686e-05 1.6355e-06
-0.0293817 0.000213321 2.95707 0.00384012 22.8014 5.37275e-05 1.59553e-06
-0.0276533 0.000213321 2.8979 0.00401513 23.3293 5.33678e-05 1.55414e-06
-0.025925 0.000213321 2.83596 0.00420093 23.8803 5.29876e-05 1.51126e-06
-0.0241967 0.000213321 2.771 0.00440328 24.4529 5.25854e-05 1.46685e-06
-0.0224683 0.000213321 2.70286 0.00461817 25.0509 5.21587e-05 1.42077e-06
-0.02074 0.000213321 2.63118 0.00485503 25.6719 5.17058e-05 1.37302e-06
-0.0190117 0.000213321 2.55579 0.00510657 26.321 5.1223e-05 1.32343e-06
-0.0172833 0.000213321 2.4762 0.00538823 26.9945 5.07081e-05 1.272e-06
-0.015555 0.000213321 2.3922 0.00568721 27.6994 5.01563e-05 1.21851e-06
-0.0138267 0.000213321 2.30312 0.00602936 28.4301 4.95644e-05 1.16299e-06
-0.0120983 0.000213321 2.20868 0.00639193 29.1964 4.89257e-05 1.10518e-06
-0.01037 0.000213321 2.10798 0.00682107 29.9898 4.82354e-05 1.04511e-06
-0.00864167 0.000213321 2.00051 0.00727194 30.8235 4.74855e-05 9.82589e-07
-0.00691333 0.000213321 1.88509 0.00784001 31.6864 4.66671e-05 9.17549e-07
-0.005185 0.000213321 1.76063 0.00838032 32.5943 4.57737e-05 8.50219e-07
-0.00345667 0.000213321 1.62614 0.0091972 33.5363 4.4795e-05 7.80716e-07
-0.00172833 0.000213321 1.47955 0.00953306 34.5217 4.37312e-05 7.10011e-07
0 0.000213321 1.30328 0.0155395 35.5592 4.2588e-05 6.39422e-07
-0.0864167 0.00027211 4.77749 0.00226849 13.7693 8.91902e-05 1.09539e-05
-0.0846883 0.00027211 4.74079 0.0115229 13.9242 7.09268e-05 4.66553e-06
-0.08296 0.00027211 4.76513 -0.0010839 13.8842 7.693e-05 6.34201e-06
-0.0812317 0.00027211 4.81429 -0.00405786 14.2322 7.74062e-05 6.49052e-06
-0.0795033 0.00027211 4.85999 -0.00365583 14.3747 7.71224e-05 6.40174e-06
-0.077775 0.00027211 4.87756 -0.00134986 14.6193 7.6403e-05 6.18042e-06
-0.0760467 0.00027211 4.87815 0.000272927 14.7253 7.58459e-05 6.01267e-06
-0.0743183 0.00027211 4.86327 0.00154506 14.8982 7.54696e-05 5.90115e-06
-0.07259 0.00027211 4.84249 0.00211359 15.0121 7.52143e-05 5.82633e-06
-0.0708617 0.00027211 4.81634 0.00250347 15.1798 7.50321e-05 5.77333e-06
-0.0691333 0.00027211 4.78886 0.00264481 15.3239 7.48732e-05 5.72735e-06
-0.067405 0.00027211 4.75921 0.00278117 15.5074 7.47272e-05 5.68535e-06
-0.0656767 0.00027211 4.72905 0.00284557 15.6824 7.45777e-05 5.64257e-06
-0.0639483 0.00027211 4.69749 0.00293833 15.8864 7.44271e-05 5.59968e-06
-0.06222 0.00027211 4.66532 0.00300754 16.0902 7.4269e-05 5.55492e-06
-0.0604917 0.00027211 4.6319 0.00310106 16.3166 7.41065e-05 5.50918e-06
-0.0587633 0.00027211 4.59765 0.00318576 16.5478 7.39363e-05 5.46151e-06
-0.057035 0.00027211 4.56213 0.00328823 16.7982 7.37601e-05 5.4125e-06
-0.0553067 0.00027211 4.52557 0.00338842 17.0568 7.35758e-05 5.36155e-06
-0.0535783 0.00027211 4.48766 0.00350223 17.3328 7.33844e-05 5.30898e-06
-0.05185 0.00027211 4.44852 0.0036176 17.6193 7.31842e-05 5.25438e-06
-0.0501217 0.00027211 4.40792 0.00374438 17.9224 7.29757e-05 5.19795e-06
-0.0483933 0.00027211 4.36588 0.00387531 18.2378 7.27577e-05 5.13939e-06
-0.046665 0.00027211 4.32224 0.00401666 18.5697 7.25302e-05 5.07877e-06
-0.0449367 0.00027211 4.27696 0.00416422 18.9155 7.22923e-05 5.01589e-06
-0.0432083 0.00027211 4.22991 0.00432206 19.278 7.20436e-05 4.95075e-06
-0.04148 0.00027211 4.181 0.00448802 19.6557 7.17832e-05 4.88319e-06
-0.0397517 0.00027211 4.13012 0.00466475 20.0508 7.15106e-05 4.81315e-06
-0.0380233 0.00027211 4.07714 0.00485161 20.4625 7.12249e-05 4.7405e-06
-0.036295 0.00027211 4.02194 0.00505029 20.8925 7.09253e-05 4.66515e-06
-0.0345667 0.00027211 3.96437 0.00526146 21.3403 7.06109e-05 4.58696e-06
-0.0328383 0.00027211 3.90429 0.00548602 21.8077 7.02805e-05 4.5058e-06
-0.03111 0.00027211 3.84151 0.00572602 22.2941 6.99331e-05 4.42156e-06
-0.0293817 0.00027211 3.77588 0.00598155 22.8017 6.95672e-05 4.33403e-06
-0.0276533 0.00027211 3.70715 0.00625639 23.3297 6.91817e-05 4.24313e-06
-0.025925 0.00027211 3.63515 0.00654958 23.8806 6.87745e-05 4.14857e-06
-0.0241967 0.00027211 3.55957 0.00686739 24.4533 6.83443e-05 4.05029e-06
-0.0224683 0.00027211 3.4802 0.00720718 25.0512 6.78881e-05 3.9479e-06
-0.02074 0.00027211 3.39663 0.00757921 25.6723 6.74046e-05 3.84136e-06
-0.0190117 0.00027211 3.30862 0.00797795 26.3214 6.68897e-05 3.73016e-06
-0.0172833 0.00027211 3.21561 0.00842039 26.9949 6.63416e-05 3.61429e-06
-0.015555 0.00027211 3.1173 0.00889568 27.6999 6.57545e-05 3.49306e-06
-0.0138267 0.00027211 3.01295 0.00943329 28.4306 6.5126e-05 3.36649e-06
-0.0120983 0.00027211 2.90212 0.0100114 29.1969 6.44484e-05 3.23371e-06
-0.01037 0.00027211 2.7838 0.0106861 29.9903 6.37171e-05 3.09465e-06
-0.00864167 0.00027211 2.6573 0.0114079 30.8241 6.29229e-05 2.9485e-06
-0.00691333 0.00027211 2.5212 0.0123084 31.6869 6.20564e-05 2.79475e-06
-0.005185 0.00027211 2.37418 0.0132133 32.5948 6.11094e-05 2.63337e-06
-0.00345667 0.00027211 2.21475 0.0144712 33.5366 6.00657e-05 2.46337e-06
-0.00172833 0.00027211 2.04052 0.0153106 34.5223 5.89056e-05 2.28382e-06
0 0.00027211 1.83021 0.023664 35.5593 5.76264e-05 2.09699e-06
-0.0864167 0.000333259 5.54442 0.00307523 13.6079 0.000102904 1.8212e-05
-0.0846883 0.000333259 5.55326 0.0106872 13.9636 8.97506e-05 1.12057e-05
-0.08296 0.000333259 5.61619 -0.00290133 13.8769 9.55107e-05 1.40124e-05
-0.0812317 0.000333259 5.67443 -0.00601598 14.2344 9.64029e-05 1.44833e-05
-0.0795033 0.000333259 5.71967 -0.00472302 14.3735 9.55175e-05 1.4016e-05
-0.077775 0.000333259 5.73531 -0.00157858 14.6187 9.42099e-05 1.33434e-05
-0.0760467 0.000333259 5.73378 0.000620594 14.725 9.32027e-05 1.28396e-05
-0.0743183 0.000333259 5.71745 0.00224353 14.8981 9.25667e-05 1.25278e-05
-0.07259 0.000333259 5.69514 0.00300203 15.0121 9.2171e-05 1.23363e-05
-0.0708617 0.000333259 5.6676 0.00349894 15.1799 9.19183e-05 1.2215e-05
-0.0691333 0.000333259 5.63843 0.00370432 15.3241 9.17226e-05 1.21215e-05
-0.067405 0.000333259 5.60704 0.00388562 15.5076 9.15572e-05 1.2043e-05
-0.0656767 0.000333259 5.57488 0.00398843 15.6826 9.13962e-05 1.19667e-05
-0.0639483 0.000333259 5.54123 0.00411683 15.8866 9.12385e-05 1.18924e-05
-0.06222 0.000333259 5.50679 0.00422307 16.0904 9.10753e-05 1.18158e-05
-0.0604917 0.000333259 5.471 0.00435437 16.3168 9.09091e-05 1.17381e-05
-0.0587633 0.000333259 5.43423 0.0044797 16.5481 9.07355e-05 1.16573e-05
-0.057035 0.000333259 5.3961 0.00462456 16.7985 9.05565e-05 1.15744e-05
-0.0553067 0.000333259 5.35678 0.00477025 17.0571 9.03692e-05 1.1488e-05
-0.0535783 0.000333259 5.316 0.00493185 17.333 9.01749e-05 1.13989e-05
-0.05185 0.000333259 5.27383 0.00509824 17.6196 8.99716e-05 1.1306e-05
-0.0501217 0.000333259 5.23008 0.00527875 17.9226 8.97598e-05 1.12099e-05
-0.0483933 0.000333259 5.18474 0.00546683 18.2381 8.95382e-05 1.11098e-05
-0.046665 0.000333259 5.13764 0.00566847 18.57 8.93068e-05 1.1006e-05
-0.0449367 0.000333259 5.08874 0.00588004 18.9158 8.90647e-05 1.0898e-05
-0.0432083 0.000333259 5.03788 0.00610553 19.2783 8.88115e-05 1.07859e-05
-0.04148 0.000333259 4.985 0.00634328 19.656 8.85464e-05 1.06692e-05
-0.0397517 0.000333259 4.92993 0.00659608 20.0512 8.82689e-05 1.0548e-05
-0.0380233 0.000333259 4.87257 0.00686375 20.4628 8.79781e-05 1.0422e-05
-0.036295 0.000333259 4.81275 0.00714829 20.8929 8.76732e-05 1.02909e-05
-0.0345667 0.000333259 4.75032 0.00745085 21.3407 8.73534e-05 1.01545e-05
-0.0328383 0.000333259 4.68512 0.00777287 21.8081 8.70177e-05 1.00127e-05
-0.03111 0.000333259 4.61694 0.00811691 22.2945 8.6665e-05 9.8651e-06
-0.0293817 0.000333259 4.54561 0.00848385 22.8021 8.6294e-05 9.71139e-06
-0.0276533 0.000333259 4.47086 0.00887809 23.3301 8.59037e-05 9.5514e-06
-0.025925 0.000333259 4.39247 0.00929979 23.881 8.5492e-05 9.38456e-06
-0.0241967 0.000333259 4.31013 0.00975601 24.4537 8.5058e-05 9.21077e-06
-0.0224683 0.000333259 4.22356 0.0102457 25.0517 8.45989e-05 9.02925e-06
-0.02074 0.000333259 4.13233 0.0107802 25.6728 8.41135e-05 8.83995e-06
-0.0190117 0.000333259 4.03615 0.0113561 26.3219 8.3598e-05 8.6418e-06
-0.0172833 0.000333259 3.93441 0.0119924 26.9954 8.30509e-05 8.43482e-06
-0.015555 0.000333259 3.82673 0.0126807 27.7004 8.2467e-05 8.21755e-06
-0.0138267 0.000333259 3.71231 0.0134546 28.4311 8.18442e-05 7.99002e-06
-0.0120983 0.000333259 3.59062 0.0142945 29.1975 8.11752e-05 7.75036e-06
-0.01037 0.000333259 3.46053 0.0152665 29.9909 8.04564e-05 7.49833e-06
-0.00864167 0.000333259 3.32122 0.0163172 30.8247 7.96784e-05 7.23185e-06
-0.00691333 0.000333259 3.1711 0.0176038 31.6876 7.88328e-05 6.94956e-06
-0.005185 0.000333259 3.00866 0.0189385 32.5957 7.79107e-05 6.65042e-06
-0.00345667 0.000333259 2.83196 0.0207008 33.5374 7.68892e-05 6.32942e-06
-0.00172833 0.000333259 2.63813 0.0222037 34.5236 7.57161e-05 5.97405e-06
0 0.000333259 2.40436 0.0331209 35.5597 7.43794e-05 5.58615e-06
-0.0864167 0.000396864 6.20444 0.00389465 13.4321 0.000116621 2.78004e-05
-0.0846883 0.000396864 6.24274 0.00776277 14.0035 0.000109904 2.28146e-05
-0.08296 0.000396864 6.32555 -0.00522969 13.8709 0.000115867 2.72139e-05
-0.0812317 0.000396864 6.38342 -0.00803273 14.236 0.000116891 2.80126e-05
-0.0795033 0.000396864 6.42612 -0.00578792 14.3716 0.000115373 2.68323e-05
-0.077775 0.000396864 6.44166 -0.00179672 14.6174 0.000113343 2.52984e-05
-0.0760467 0.000396864 6.44105 0.000979622 14.7244 0.000111738 2.41214e-05
-0.0743183 0.000396864 6.42608 0.00296862 14.8977 0.000110706 2.33812e-05
-0.07259 0.000396864 6.40461 0.0039317 15.0122 0.000110073 2.29336e-05
-0.0708617 0.000396864 6.37754 0.00455108 15.1801 0.000109686 2.2662e-05
-0.0691333 0.000396864 6.34833 0.00483209 15.3244 0.000109413 2.24722e-05
-0.067405 0.000396864 6.31663 0.00506875 15.5079 0.000109204 2.23267e-05
-0.0656767 0.000396864 6.28386 0.00521768 15.683 0.000109016 2.21973e-05
-0.0639483 0.000396864 6.24945 0.00538885 15.887 0.000108843 2.2078e-05
-0.06222 0.000396864 6.21408 0.00553794 16.0908 0.000108671 2.19598e-05
-0.0604917 0.000396864 6.17727 0.00571286 16.3172 0.0001085 2.18428e-05
-0.0587633 0.000396864 6.13936 0.00588413 16.5485 0.000108325 2.17232e-05
-0.057035 0.000396864 6.10001 0.00607692 16.7989 0.000108146 2.16015e-05
-0.0553067 0.000396864 6.05937 0.00627353 17.0575 0.00010796 2.14755e-05
-0.0535783 0.000396864 6.01721 0.00648866 17.3335 0.000107768 2.13458e-05
-0.05185 0.000396864 5.97357 0.0067119 17.62 0.000107568 2.12109e-05
-0.0501217 0.000396864 5.92827 0.00695235 17.9231 0.00010736 2.10712e-05
-0.0483933 0.000396864 5.88129 0.00720401 18.2386 0.000107142 2.09257e-05
-0.046665 0.000396864 5.83247 0.0074728 18.5705 0.000106915 2.07745e-05
-0.0449367 0.000396864 5.78176 0.00775556 18.9163 0.000106677 2.06169e-05
-0.0432083 0.000396864 5.729 0.00805638 19.2788 0.000106428 2.04529e-05
-0.04148 0.000396864 5.67411 0.00837403 19.6566 0.000106168 2.0282e-05
-0.0397517 0.000396864 5.61693 0.00871157 20.0517 0.000105895 2.0104e-05
-0.0380233 0.000396864 5.55734 0.00906926 20.4634 0.00010561 1.99185e-05
-0.036295 0.000396864 5.49518 0.00944954 20.8935 0.00010531 1.97251e-05
-0.0345667 0.000396864 5.43028 0.00985406 21.3413 0.000104996 1.95236e-05
-0.0328383 0.000396864 5.36246 0.0102849 21.8087 0.000104667 1.93135e-05
-0.03111 0.000396864 5.29153 0.0107452 22.2952 0.000104322 1.90945e-05
-0.0293817 0.000396864 5.21726 0.0112367 22.8028 0.000103958 1.8866e-05
-0.0276533 0.000396864 5.13941 0.0117646 23.3308 0.000103577 1.86278e-05
-0.025925 0.000396864 5.05772 0.0123303 23.8818 0.000103176 1.83789e-05
-0.0241967 0.000396864 4.97187 0.0129418 24.4545 0.000102753 1.81192e-05
-0.0224683 0.000396864 4.88155 0.0135997 25.0525 0.000102307 1.78477e-05
-0.02074 0.000396864 4.78634 0.0143169 25.6736 0.000101838 1.75641e-05
-0.0190117 0.000396864 4.68586 0.0150921 26.3227 0.00010134 1.7267e-05
-0.0172833 0.000396864 4.57953 0.0159469 26.9963 0.000100815 1.69563e-05
-0.015555 0.000396864 4.4669 0.0168755 27.7013 0.000100256 1.66299e-05
-0.0138267 0.000396864 4.34714 0.0179164 28.4321 9.96641e-05 1.6288e-05
-0.0120983 0.000396864 4.21965 0.0190527 29.1985 9.90314e-05 1.59276e-05
-0.01037 0.000396864 4.08326 0.0203618 29.9919 9.83566e-05 1.55486e-05
-0.00864167 0.000396864 3.93705 0.0217926 30.8258 9.76318e-05 1.51479e-05
-0.00691333 0.000396864 3.77935 0.0235261 31.6887 9.68511e-05 1.47235e-05
-0.005185 0.000396864 3.60852 0.0253702 32.5969 9.601e-05 1.42748e-05
-0.00345667 0.000396864 3.42235 0.0277161 33.5385 9.50835e-05 1.37905e-05
-0.00172833 0.000396864 3.21746 0.0300367 34.5256 9.40027e-05 1.32388e-05
0 0.000396864 2.97212 0.0435023 35.5602 9.27373e-05 1.2611e-05
-0.0864167 0.000463023 6.76587 0.00469888 13.2776 0.000130629 3.99065e-05
-0.0846883 0.000463023 6.80984 0.00397722 14.0361 0.000130979 4.0237e-05