TITLE = PHILL
VARIABLES = "X" ,  "Y" , "ub" , "vb" , "pb" , "nutb" , "nuT" 
ZONE   N=27972,E=55220,F=FEPOINT,ET=TRIANGLE
-0.0864167 0 6.48608e-41 2.68021e-39 10.4203 -3.69816e-43 3.69108e-159
-0.0846883 0 -2.42e-40 -2.10338e-39 10.2315 -8.94458e-44 1.26313e-161
-0.08296 0 -6.70518e-40 2.13469e-39 10.2606 -1.64914e-42 1.45961e-156
-0.0812317 0 2.79804e-40 -1.94258e-40 10.5474 3.20783e-42 2.08955e-155
-0.0795033 0 -1.6809e-40 -2.51469e-39 10.6767 -3.48753e-42 2.91932e-155
-0.077775 0 1.5615e-40 2.14584e-40 10.8978 2.47055e-42 7.3517e-156
-0.0760467 0 -5.00633e-43 -1.70083e-39 10.983 -1.29715e-42 5.5869e-157
-0.0743183 0 7.88087e-41 -4.3252e-40 11.1313 5.39008e-43 1.66568e-158
-0.07259 0 3.16282e-43 -1.02099e-39 11.2176 -1.54974e-43 1.13826e-160
-0.0708617 0 3.93448e-41 -4.18817e-40 11.3544 9.71238e-44 1.75595e-161
-0.0691333 0 4.8082e-42 -7.39325e-40 11.4651 -1.3231e-44 6.04762e-165
-0.067405 0 2.81502e-41 -4.70266e-40 11.612 2.50593e-44 7.7819e-164
-0.0656767 0 1.21045e-41 -6.66883e-40 11.7485 -3.63126e-45 3.43113e-167
-0.0639483 0 2.72091e-41 -5.15728e-40 11.9107 1.43333e-44 8.32903e-165
-0.06222 0 2.10184e-41 -6.47166e-40 12.0706 5.09749e-45 1.3324e-166
-0.0604917 0 3.18012e-41 -5.76177e-40 12.2501 1.64993e-44 1.46241e-164
-0.0587633 0 2.88107e-41 -6.58514e-40 12.4324 1.32492e-44 6.0809e-165
-0.057035 0 3.46287e-41 -6.07715e-40 12.6307 2.04419e-44 3.44585e-164
-0.0553067 0 3.18216e-41 -6.45168e-40 12.835 1.88878e-44 2.51153e-164
-0.0535783 0 3.44132e-41 -6.05355e-40 13.0537 2.35526e-44 6.07247e-164
-0.05185 0 3.20588e-41 -6.23739e-40 13.2806 2.27329e-44 5.27019e-164
-0.0501217 0 3.31626e-41 -5.98399e-40 13.5211 2.58959e-44 8.87423e-164
-0.0483933 0 3.1226e-41 -6.09597e-40 13.7717 2.53256e-44 8.11799e-164
-0.046665 0 3.1269e-41 -5.93565e-40 14.0356 2.72522e-44 1.08847e-163
-0.0449367 0 2.92361e-41 -5.98913e-40 14.3111 2.63949e-44 9.57837e-164
-0.0432083 0 2.82538e-41 -5.86527e-40 14.6002 2.69972e-44 1.0483e-163
-0.04148 0 2.58625e-41 -5.86727e-40 14.9022 2.53942e-44 8.20633e-164
-0.0397517 0 2.40812e-41 -5.75662e-40 15.2185 2.45773e-44 7.20028e-164
-0.0380233 0 2.14335e-41 -5.72471e-40 15.5488 2.19903e-44 4.61458e-164
-0.036295 0 1.92417e-41 -5.62405e-40 15.8944 1.98541e-44 3.06628e-164
-0.0345667 0 1.65995e-41 -5.5768e-40 16.2555 1.63435e-44 1.40796e-164
-0.0328383 0 1.43755e-41 -5.4888e-40 16.6329 1.32697e-44 6.11859e-165
-0.03111 0 1.19668e-41 -5.44045e-40 17.0272 9.17279e-45 1.39706e-165
-0.0293817 0 9.95028e-42 -5.36703e-40 17.4393 5.76501e-45 2.17976e-166
-0.0276533 0 7.85078e-42 -5.32616e-40 17.87 1.50785e-45 1.02011e-168
-0.025925 0 6.067e-42 -5.26625e-40 18.3201 -1.64079e-45 1.43027e-168
-0.0241967 0 4.08052e-42 -5.23939e-40 18.7909 -5.89848e-45 2.38874e-166
-0.0224683 0 2.06207e-42 -5.19524e-40 19.283 -8.46129e-45 1.01148e-165
-0.02074 0 -8.07524e-43 -5.19066e-40 19.7983 -1.29061e-44 5.47509e-165
-0.0190117 0 -3.10587e-42 -5.08756e-40 20.3371 -1.3173e-44 5.94216e-165
-0.0172833 0 7.31081e-43 -4.89029e-40 20.9023 -1.25697e-44 4.92619e-165
-0.015555 0 2.04596e-41 -4.77581e-40 21.4936 -5.10563e-45 1.34093e-166
-0.0138267 0 5.06412e-41 -5.94808e-40 22.1155 -4.22295e-44 6.27584e-163
-0.0120983 0 6.1232e-41 -7.52501e-40 22.7663 -1.02448e-43 2.17384e-161
-0.01037 0 4.19248e-41 -8.41573e-40 23.4539 -1.01868e-43 2.125e-161
-0.00864167 0 -1.9694e-42 -7.34749e-40 24.1731 -1.84528e-44 2.28802e-164
-0.00691333 0 -3.13411e-41 -5.3676e-40 24.9385 7.04953e-44 4.87361e-162
-0.005185 0 -2.21643e-41 -2.03147e-40 25.7377 1.34375e-43 6.43403e-161
-0.00345667 0 2.24157e-41 -2.77618e-40 26.6002 1.12509e-44 3.16196e-165
-0.00172833 0 2.90118e-41 -9.73363e-40 27.4906 -9.63534e-44 1.7009e-161
0 0 -3.63926e-41 -3.19059e-40 28.4906 -1.96864e-43 2.96401e-160
-0.0864167 5.01423e-05 0.942354 7.64339e-05 10.4216 2.61228e-05 9.15718e-08
-0.0846883 5.01423e-05 0.910522 0.000645449 10.234 7.32186e-06 5.67101e-10
-0.08296 5.01423e-05 0.878389 0.000130481 10.2603 1.50198e-05 1.00363e-08
-0.0812317 5.01423e-05 0.877994 -6.8268e-05 10.5475 1.30227e-05 5.67317e-09
-0.0795033 5.01423e-05 0.890972 -0.000197119 10.6761 1.37736e-05 7.09867e-09
-0.077775 5.01423e-05 0.899893 -6.02968e-05 10.8976 1.36038e-05 6.75518e-09
-0.0760467 5.01423e-05 0.906077 -6.2493e-05 10.983 1.36827e-05 6.91316e-09
-0.0743183 5.01423e-05 0.90564 3.40151e-05 11.1313 1.36532e-05 6.85378e-09
-0.07259 5.01423e-05 0.903505 2.61602e-05 11.2177 1.36372e-05 6.82177e-09
-0.0708617 5.01423e-05 0.898591 6.57983e-05 11.3546 1.36044e-05 6.75631e-09
-0.0691333 5.01423e-05 0.893603 5.38856e-05 11.4653 1.35708e-05 6.68991e-09
-0.067405 5.01423e-05 0.887569 7.12614e-05 11.6122 1.35331e-05 6.61585e-09
-0.0656767 5.01423e-05 0.881737 6.31175e-05 11.7487 1.34946e-05 6.54092e-09
-0.0639483 5.01423e-05 0.875353 7.29345e-05 11.9109 1.34539e-05 6.46242e-09
-0.06222 5.01423e-05 0.869055 6.88977e-05 12.0709 1.34122e-05 6.38277e-09
-0.0604917 5.01423e-05 0.86235 7.56283e-05 12.2504 1.33687e-05 6.30024e-09
-0.0587633 5.01423e-05 0.8556 7.43479e-05 12.4326 1.33238e-05 6.21605e-09
-0.057035 5.01423e-05 0.848498 7.95446e-05 12.6309 1.32769e-05 6.12914e-09
-0.0553067 5.01423e-05 0.841258 7.99952e-05 12.8353 1.32285e-05 6.04017e-09
-0.0535783 5.01423e-05 0.833689 8.4409e-05 13.0539 1.3178e-05 5.94849e-09
-0.05185 5.01423e-05 0.825917 8.60039e-05 13.2809 1.31256e-05 5.85448e-09
-0.0501217 5.01423e-05 0.817817 9.00825e-05 13.5214 1.3071e-05 5.75769e-09
-0.0483933 5.01423e-05 0.809461 9.25082e-05 13.772 1.30142e-05 5.65834e-09
-0.046665 5.01423e-05 0.800766 9.65447e-05 14.036 1.2955e-05 5.55612e-09
-0.0449367 5.01423e-05 0.791767 9.96461e-05 14.3114 1.28933e-05 5.45112e-09
-0.0432083 5.01423e-05 0.782404 0.00010385 14.6006 1.2829e-05 5.34312e-09
-0.04148 5.01423e-05 0.772691 0.000107569 14.9025 1.27618e-05 5.23212e-09
-0.0397517 5.01423e-05 0.76258 0.000112111 15.2189 1.26916e-05 5.11795e-09
-0.0380233 5.01423e-05 0.752067 0.000116455 15.5492 1.26181e-05 5.00055e-09
-0.036295 5.01423e-05 0.74111 0.000121493 15.8948 1.25412e-05 4.87978e-09
-0.0345667 5.01423e-05 0.729695 0.00012652 16.2559 1.24606e-05 4.75555e-09
-0.0328383 5.01423e-05 0.717776 0.000132225 16.6333 1.2376e-05 4.6277e-09
-0.03111 5.01423e-05 0.705331 0.000138038 17.0277 1.2287e-05 4.49613e-09
-0.0293817 5.01423e-05 0.692309 0.000144618 17.4398 1.21934e-05 4.36066e-09
-0.0276533 5.01423e-05 0.678677 0.000151369 17.8705 1.20947e-05 4.22116e-09
-0.025925 5.01423e-05 0.664372 0.000159099 18.3206 1.19903e-05 4.07745e-09
-0.0241967 5.01423e-05 0.649356 0.000166998 18.7915 1.18799e-05 3.92937e-09
-0.0224683 5.01423e-05 0.633542 0.000176273 19.2836 1.17628e-05 3.7767e-09
-0.02074 5.01423e-05 0.616885 0.000185602 19.7989 1.16382e-05 3.61927e-09
-0.0190117 5.01423e-05 0.599264 0.000197024 20.3378 1.15053e-05 3.45682e-09
-0.0172833 5.01423e-05 0.580628 0.000208164 20.903 1.13632e-05 3.28914e-09
-0.015555 5.01423e-05 0.560793 0.000222722 21.4943 1.12105e-05 3.11592e-09
-0.0138267 5.01423e-05 0.539713 0.000236191 22.1163 1.10458e-05 2.9369e-09
-0.0120983 5.01423e-05 0.517083 0.000255627 22.7672 1.08674e-05 2.75172e-09
-0.01037 5.01423e-05 0.492887 0.000272251 23.4548 1.06729e-05 2.55999e-09
-0.00864167 5.01423e-05 0.466568 0.000299531 24.1741 1.04594e-05 2.36123e-09
-0.00691333 5.01423e-05 0.438224 0.000322262 24.9396 1.02231e-05 2.15497e-09
-0.005185 5.01423e-05 0.406678 0.000357845 25.7388 9.95829e-06 1.94028e-09
-0.00345667 5.01423e-05 0.372616 0.000409302 26.6018 9.66033e-06 1.71831e-09
-0.00172833 5.01423e-05 0.333291 0.00038549 27.4912 9.31691e-06 1.48672e-09
0 5.01423e-05 0.285208 0.00202178 28.4896 8.89718e-06 1.2364e-09
-0.0864167 0.000102759 1.92157 0.00030237 10.4122 4.3982e-05 7.26238e-07
-0.0846883 0.000102759 1.8562 0.00302337 10.2394 2.07612e-05 3.6598e-08
-0.08296 0.000102759 1.80734 0.000427268 10.258 2.93344e-05 1.45398e-07
-0.0812317 0.000102759 1.81098 -0.000438619 10.5484 2.74679e-05 1.11876e-07
-0.0795033 0.000102759 1.83576 -0.000787568 10.6757 2.82082e-05 1.24392e-07
-0.077775 0.000102759 1.85236 -0.0003747 10.8976 2.80627e-05 1.21854e-07
-0.0760467 0.000102759 1.86262 -0.000176583 10.9829 2.81141e-05 1.22746e-07
-0.0743183 0.000102759 1.86147 0.000126576 11.1313 2.80652e-05 1.21897e-07
-0.07259 0.000102759 1.85673 0.000199882 11.2178 2.80215e-05 1.21141e-07
-0.0708617 0.000102759 1.84735 0.000309114 11.3546 2.79622e-05 1.20123e-07
-0.0691333 0.000102759 1.83751 0.000312528 11.4653 2.78992e-05 1.19048e-07
-0.067405 0.000102759 1.82595 0.000353422 11.6122 2.78317e-05 1.17902e-07
-0.0656767 0.000102759 1.81455 0.000348892 11.7487 2.77611e-05 1.16715e-07
-0.0639483 0.000102759 1.80223 0.000372688 11.9109 2.76874e-05 1.15485e-07
-0.06222 0.000102759 1.78993 0.000373932 12.0709 2.76109e-05 1.14217e-07
-0.0604917 0.000102759 1.77692 0.000393261 12.2504 2.75313e-05 1.1291e-07
-0.0587633 0.000102759 1.76373 0.000399997 12.4326 2.74487e-05 1.11564e-07
-0.057035 0.000102759 1.74991 0.000417897 12.6309 2.73627e-05 1.10178e-07
-0.0553067 0.000102759 1.73577 0.000428536 12.8353 2.72733e-05 1.0875e-07
-0.0535783 0.000102759 1.72102 0.00044622 13.054 2.71804e-05 1.07279e-07
-0.05185 0.000102759 1.70583 0.000459816 13.2809 2.70836e-05 1.05764e-07
-0.0501217 0.000102759 1.69002 0.000478072 13.5214 2.69829e-05 1.04204e-07
-0.0483933 0.000102759 1.67369 0.000494214 13.772 2.6878e-05 1.02598e-07
-0.046665 0.000102759 1.65671 0.000513661 14.036 2.67687e-05 1.00943e-07
-0.0449367 0.000102759 1.63911 0.000532266 14.3114 2.66547e-05 9.92394e-08
-0.0432083 0.000102759 1.62082 0.00055345 14.6006 2.65357e-05 9.74842e-08
-0.04148 0.000102759 1.60182 0.000574659 14.9026 2.64115e-05 9.56761e-08
-0.0397517 0.000102759 1.58205 0.000598129 15.2189 2.62816e-05 9.38131e-08
-0.0380233 0.000102759 1.56149 0.000622263 15.5492 2.61457e-05 9.18933e-08
-0.036295 0.000102759 1.54007 0.000648627 15.8949 2.60035e-05 8.99144e-08
-0.0345667 0.000102759 1.51774 0.00067618 16.2559 2.58543e-05 8.78742e-08
-0.0328383 0.000102759 1.49443 0.000706176 16.6333 2.56977e-05 8.577e-08
-0.03111 0.000102759 1.47008 0.000737845 17.0277 2.55331e-05 8.35993e-08
-0.0293817 0.000102759 1.44461 0.000772415 17.4398 2.53599e-05 8.13591e-08
-0.0276533 0.000102759 1.41794 0.000809158 17.8705 2.51773e-05 7.9046e-08
-0.025925 0.000102759 1.38996 0.000849573 18.3207 2.49844e-05 7.6657e-08
-0.0241967 0.000102759 1.36059 0.000892714 18.7915 2.47803e-05 7.41878e-08
-0.0224683 0.000102759 1.32966 0.00094076 19.2836 2.45638e-05 7.16347e-08
-0.02074 0.000102759 1.29707 0.000992179 19.799 2.43336e-05 6.89926e-08
-0.0190117 0.000102759 1.26262 0.00105049 20.3378 2.40882e-05 6.62573e-08
-0.0172833 0.000102759 1.22616 0.00111296 20.9031 2.38257e-05 6.34218e-08
-0.015555 0.000102759 1.18739 0.00118566 21.4944 2.35441e-05 6.04816e-08
-0.0138267 0.000102759 1.14616 0.00126352 22.1164 2.32404e-05 5.74266e-08
-0.0120983 0.000102759 1.10194 0.00135747 22.7672 2.29119e-05 5.42534e-08
-0.01037 0.000102759 1.05463 0.00145844 23.4548 2.25537e-05 5.09444e-08
-0.00864167 0.000102759 1.00324 0.00158539 24.1741 2.21617e-05 4.74997e-08
-0.00691333 0.000102759 0.9478 0.00172731 24.9397 2.17272e-05 4.38883e-08
-0.005185 0.000102759 0.886313 0.00190007 25.7388 2.12436e-05 4.01146e-08
-0.00345667 0.000102759 0.819546 0.00213412 26.602 2.06979e-05 3.61536e-08
-0.00172833 0.000102759 0.743215 0.00196001 27.4924 2.00754e-05 3.20019e-08
0 0.000102759 0.648891 0.00507345 28.4919 1.93119e-05 2.74092e-08
-0.0864167 0.000157972 2.90893 0.000673461 10.3789 6.02793e-05 2.49749e-06
-0.0846883 0.000157972 2.8246 0.006476 10.2525 3.6234e-05 3.36991e-07
-0.08296 0.000157972 2.77877 0.000586689 10.2537 4.41438e-05 7.36846e-07
-0.0812317 0.000157972 2.79291 -0.00114963 10.5496 4.3004e-05 6.6448e-07
-0.0795033 0.000157972 2.82846 -0.00167081 10.6752 4.35436e-05 6.98056e-07
-0.077775 0.000157972 2.85059 -0.000857199 10.8976 4.33871e-05 6.88188e-07
-0.0760467 0.000157972 2.86235 -0.000310345 10.9829 4.33405e-05 6.85272e-07
-0.0743183 0.000157972 2.85969 0.000278479 11.1313 4.32443e-05 6.79282e-07
-0.07259 0.000157972 2.85188 0.000492876 11.2179 4.31592e-05 6.74013e-07
-0.0708617 0.000157972 2.83843 0.000693297 11.3546 4.30741e-05 6.68771e-07
-0.0691333 0.000157972 2.82407 0.000732065 11.4654 4.29862e-05 6.63391e-07
-0.067405 0.000157972 2.80763 0.000801836 11.6123 4.28966e-05 6.5794e-07
-0.0656767 0.000157972 2.79116 0.000810738 11.7488 4.28019e-05 6.52218e-07
-0.0639483 0.000157972 2.77354 0.000852261 11.911 4.27041e-05 6.46347e-07
-0.06222 0.000157972 2.75576 0.000866672 12.071 4.26013e-05 6.40216e-07
-0.0604917 0.000157972 2.73706 0.000903432 12.2505 4.24949e-05 6.3391e-07
-0.0587633 0.000157972 2.71798 0.00092587 12.4328 4.23834e-05 6.27361e-07
-0.057035 0.000157972 2.69806 0.000962484 12.6311 4.22678e-05 6.20618e-07
-0.0553067 0.000157972 2.67759 0.000991224 12.8355 4.21471e-05 6.13635e-07
-0.0535783 0.000157972 2.65627 0.00102922 13.0541 4.20216e-05 6.0644e-07
-0.05185 0.000157972 2.63427 0.00106319 13.2811 4.18908e-05 5.99002e-07
-0.0501217 0.000157972 2.6114 0.00110363 13.5216 4.17546e-05 5.91333e-07
-0.0483933 0.000157972 2.58773 0.00114251 13.7722 4.16126e-05 5.83412e-07
-0.046665 0.000157972 2.56313 0.00118637 14.0362 4.14645e-05 5.75241e-07
-0.0449367 0.000157972 2.53763 0.00123035 14.3116 4.13101e-05 5.66805e-07
-0.0432083 0.000157972 2.51111 0.00127863 14.6008 4.11489e-05 5.581e-07
-0.04148 0.000157972 2.48356 0.00132825 14.9028 4.09805e-05 5.49111e-07
-0.0397517 0.000157972 2.45488 0.00138202 15.2191 4.08045e-05 5.39832e-07
-0.0380233 0.000157972 2.42505 0.00143818 15.5495 4.06204e-05 5.30247e-07
-0.036295 0.000157972 2.39396 0.00149873 15.8951 4.04276e-05 5.20348e-07
-0.0345667 0.000157972 2.36154 0.00156265 16.2561 4.02254e-05 5.10117e-07
-0.0328383 0.000157972 2.3277 0.0016316 16.6336 4.00133e-05 4.99543e-07
-0.03111 0.000157972 2.29235 0.00170496 17.0279 3.97905e-05 4.88607e-07
-0.0293817 0.000157972 2.25535 0.00178439 17.44 3.9556e-05 4.77294e-07
-0.0276533 0.000157972 2.21662 0.00186947 17.8708 3.93088e-05 4.65581e-07
-0.025925 0.000157972 2.17597 0.00196219 18.3209 3.9048e-05 4.53452e-07
-0.0241967 0.000157972 2.13329 0.00206215 18.7918 3.87721e-05 4.40878e-07
-0.0224683 0.000157972 2.08835 0.00217211 19.2839 3.84797e-05 4.2784e-07
-0.02074 0.000157972 2.041 0.00229146 19.7993 3.8169e-05 4.14299e-07
-0.0190117 0.000157972 1.99093 0.00242441 20.3381 3.78383e-05 4.00237e-07
-0.0172833 0.000157972 1.93795 0.00256987 20.9034 3.74847e-05 3.85597e-07
-0.015555 0.000157972 1.8816 0.00273463 21.4947 3.7106e-05 3.70365e-07
-0.0138267 0.000157972 1.82166 0.002917 22.1168 3.66979e-05 3.54454e-07
-0.0120983 0.000157972 1.75742 0.00312792 22.7676 3.62576e-05 3.37863e-07
-0.01037 0.000157972 1.68862 0.00336657 23.4553 3.57778e-05 3.20447e-07
-0.00864167 0.000157972 1.614 0.00364808 24.1746 3.52551e-05 3.02244e-07
-0.00691333 0.000157972 1.53334 0.00398533 24.9403 3.46759e-05 2.82985e-07
-0.005185 0.000157972 1.44418 0.00437238 25.7394 3.40364e-05 2.62797e-07
-0.00345667 0.000157972 1.34686 0.00500325 26.6022 3.33147e-05 2.41321e-07
-0.00172833 0.000157972 1.23641 0.00514829 27.4923 3.25036e-05 2.18776e-07
0 0.000157972 1.09875 0.0103345 28.4913 3.15117e-05 1.93385e-07
-0.0864167 0.00021591 3.86026 0.00117313 10.3057 7.53891e-05 5.87749e-06
-0.0846883 0.00021591 3.78714 0.00986351 10.2749 5.30181e-05 1.51467e-06
-0.08296 0.00021591 3.76669 0.000294312 10.2479 5.98444e-05 2.42836e-06
-0.0812317 0.00021591 3.79767 -0.00236832 10.5514 5.9643e-05 2.39681e-06
-0.0795033 0.00021591 3.84208 -0.00280098 10.6747 5.98975e-05 2.43673e-06
-0.077775 0.00021591 3.86651 -0.00142076 10.8975 5.95971e-05 2.38967e-06
-0.0760467 0.00021591 3.87695 -0.000394151 10.9829 5.93668e-05 2.35403e-06
-0.0743183 0.00021591 3.87177 0.000537865 11.1313 5.9173e-05 2.32435e-06
-0.07259 0.00021591 3.86063 0.000936974 11.2179 5.90266e-05 2.3021e-06
-0.0708617 0.00021591 3.84368 0.00124289 11.3547 5.89104e-05 2.28455e-06
-0.0691333 0.00021591 3.82549 0.0013337 11.4655 5.88009e-05 2.26809e-06
-0.067405 0.00021591 3.80511 0.00143814 11.6124 5.86957e-05 2.25238e-06
-0.0656767 0.00021591 3.78445 0.00147085 11.7489 5.85852e-05 2.23595e-06
-0.0639483 0.00021591 3.7625 0.00153568 11.9111 5.84721e-05 2.21923e-06
-0.06222 0.00021591 3.74017 0.00157229 12.0711 5.83524e-05 2.20162e-06
-0.0604917 0.00021591 3.71677 0.00163307 12.2506 5.82286e-05 2.18352e-06
-0.0587633 0.00021591 3.69278 0.00168012 12.4329 5.80984e-05 2.1646e-06
-0.057035 0.00021591 3.66776 0.0017431 12.6312 5.79634e-05 2.14511e-06
-0.0553067 0.00021591 3.64198 0.00179918 12.8356 5.78221e-05 2.12484e-06
-0.0535783 0.00021591 3.61516 0.00186614 13.0542 5.76753e-05 2.10392e-06
-0.05185 0.00021591 3.58743 0.00193032 13.2812 5.75219e-05 2.08223e-06
-0.0501217 0.00021591 3.55861 0.00200264 13.5217 5.73623e-05 2.05984e-06
-0.0483933 0.00021591 3.52875 0.0020749 13.7723 5.71956e-05 2.03664e-06
-0.046665 0.00021591 3.49771 0.00215399 14.0363 5.70221e-05 2.01268e-06
-0.0449367 0.00021591 3.4655 0.00223502 14.3117 5.68408e-05 1.98788e-06
-0.0432083 0.00021591 3.432 0.00232245 14.6009 5.66517e-05 1.96224e-06
-0.04148 0.00021591 3.39718 0.00241344 14.9029 5.64541e-05 1.93571e-06
-0.0397517 0.00021591 3.36092 0.00251106 15.2192 5.62477e-05 1.90827e-06
-0.0380233 0.00021591 3.32318 0.00261374 15.5496 5.60318e-05 1.87986e-06
-0.036295 0.00021591 3.28383 0.0027238 15.8952 5.58058e-05 1.85047e-06
-0.0345667 0.00021591 3.2428 0.0028405 16.2563 5.55689e-05 1.82002e-06
-0.0328383 0.00021591 3.19994 0.00296585 16.6337 5.53206e-05 1.78848e-06
-0.03111 0.00021591 3.15515 0.00309969 17.0281 5.50598e-05 1.75579e-06
-0.0293817 0.00021591 3.10827 0.00324407 17.4402 5.47856e-05 1.7219e-06
-0.0276533 0.00021591 3.05915 0.00339925 17.871 5.44969e-05 1.68672e-06
-0.025925 0.00021591 3.00761 0.0035677 18.3211 5.41926e-05 1.65021e-06
-0.0241967 0.00021591 2.95345 0.00375005 18.792 5.38709e-05 1.61225e-06
-0.0224683 0.00021591 2.89642 0.00394961 19.2841 5.35307e-05 1.57279e-06
-0.02074 0.00021591 2.8363 0.00416749 19.7995 5.31696e-05 1.53168e-06
-0.0190117 0.00021591 2.77272 0.00440839 20.3383 5.27858e-05 1.48886e-06
-0.0172833 0.00021591 2.7054 0.00467435 20.9036 5.23763e-05 1.44412e-06
-0.015555 0.00021591 2.63381 0.00497216 21.4949 5.19387e-05 1.39743e-06
-0.0138267 0.00021591 2.5576 0.00530643 22.117 5.1468e-05 1.34843e-06
-0.0120983 0.00021591 2.47594 0.00568632 22.7679 5.09618e-05 1.29715e-06
-0.01037 0.00021591 2.38839 0.00612523 23.4555 5.04112e-05 1.24301e-06
-0.00864167 0.00021591 2.29352 0.00663017 24.1749 4.98144e-05 1.18621e-06
-0.00691333 0.00021591 2.1908 0.00725014 24.9405 4.91544e-05 1.12564e-06
-0.005185 0.00021591 2.0775 0.00791402 25.7399 4.84315e-05 1.06192e-06
-0.00345667 0.00021591 1.95331 0.00892455 26.6029 4.76162e-05 9.93284e-07
-0.00172833 0.00021591 1.81297 0.00948417 27.4935 4.67056e-05 9.20536e-07
0 0.00021591 1.6371 0.0170548 28.4923 4.55893e-05 8.36787e-07
-0.0864167 0.000276706 4.73459 0.0017714 10.1859 8.97911e-05 1.12241e-05
-0.0846883 0.000276706 4.70027 0.0116161 10.3067 7.09385e-05 4.66845e-06
-0.08296 0.000276706 4.72139 -0.00069858 10.2409 7.68693e-05 6.32327e-06
-0.0812317 0.000276706 4.77006 -0.00412287 10.5536 7.75549e-05 6.53737e-06
-0.0795033 0.000276706 4.81931 -0.00406848 10.674 7.74102e-05 6.49176e-06
-0.077775 0.000276706 4.84297 -0.00197064 10.8972 7.67598e-05 6.28951e-06
-0.0760467 0.000276706 4.85051 -0.00038457 10.9827 7.62251e-05 6.1265e-06
-0.0743183 0.000276706 4.84262 0.000910651 11.1311 7.5861e-05 6.01717e-06
-0.07259 0.000276706 4.8287 0.0015102 11.218 7.56206e-05 5.94575e-06
-0.0708617 0.000276706 4.80925 0.0019266 11.3547 7.54595e-05 5.89819e-06
-0.0691333 0.000276706 4.78839 0.00207879 11.4656 7.53256e-05 5.85887e-06
-0.067405 0.000276706 4.76534 0.00222344 11.6125 7.52066e-05 5.82408e-06
-0.0656767 0.000276706 4.74176 0.00228822 11.749 7.50849e-05 5.78865e-06
-0.0639483 0.000276706 4.71681 0.00238243 11.9112 7.49623e-05 5.75311e-06
-0.06222 0.000276706 4.69128 0.00244896 12.0713 7.48326e-05 5.71568e-06
-0.0604917 0.000276706 4.66456 0.00254029 12.2507 7.4699e-05 5.67727e-06
-0.0587633 0.000276706 4.63707 0.00261962 12.433 7.45583e-05 5.63703e-06
-0.057035 0.000276706 4.60841 0.00271605 12.6313 7.44126e-05 5.59556e-06
-0.0553067 0.000276706 4.57882 0.00280744 12.8357 7.42599e-05 5.55235e-06
-0.0535783 0.000276706 4.54803 0.00291116 13.0544 7.41014e-05 5.50773e-06
-0.05185 0.000276706 4.51616 0.00301404 13.2814 7.39358e-05 5.46137e-06
-0.0501217 0.000276706 4.48302 0.00312683 13.5219 7.37635e-05 5.41345e-06
-0.0483933 0.000276706 4.44866 0.00324171 13.7725 7.35837e-05 5.36373e-06
-0.046665 0.000276706 4.41292 0.00336553 14.0364 7.33965e-05 5.3123e-06
-0.0449367 0.000276706 4.37581 0.00349375 14.3119 7.32011e-05 5.25899e-06
-0.0432083 0.000276706 4.3372 0.00363093 14.6011 7.29974e-05 5.2038e-06
-0.04148 0.000276706 4.29704 0.00377456 14.9031 7.27847e-05 5.1466e-06
-0.0397517 0.000276706 4.2552 0.00392788 15.2194 7.25626e-05 5.08736e-06
-0.0380233 0.000276706 4.21163 0.00408973 15.5498 7.23305e-05 5.02595e-06
-0.036295 0.000276706 4.16618 0.00426269 15.8954 7.20878e-05 4.9623e-06
-0.0345667 0.000276706 4.11874 0.00444649 16.2565 7.18338e-05 4.89627e-06
-0.0328383 0.000276706 4.06918 0.00464351 16.634 7.15678e-05 4.82779e-06
-0.03111 0.000276706 4.01736 0.00485422 17.0283 7.12888e-05 4.7567e-06
-0.0293817 0.000276706 3.96309 0.00508114 17.4405 7.09961e-05 4.68288e-06
-0.0276533 0.000276706 3.9062 0.00532541 17.8712 7.06884e-05 4.60615e-06
-0.025925 0.000276706 3.84647 0.00559009 18.3214 7.03647e-05 4.52639e-06
-0.0241967 0.000276706 3.78368 0.00587715 18.7923 7.00233e-05 4.44334e-06
-0.0224683 0.000276706 3.71753 0.00619056 19.2844 6.96632e-05 4.35687e-06
-0.02074 0.000276706 3.64774 0.00653362 19.7998 6.9282e-05 4.26664e-06
-0.0190117 0.000276706 3.57391 0.00691168 20.3387 6.88782e-05 4.17251e-06
-0.0172833 0.000276706 3.49568 0.00733063 20.904 6.84486e-05 4.07398e-06
-0.015555 0.000276706 3.41247 0.00779747 21.4953 6.79916e-05 3.97096e-06
-0.0138267 0.000276706 3.32382 0.00832437 22.1174 6.75018e-05 3.86261e-06
-0.0120983 0.000276706 3.22881 0.00891888 22.7683 6.69779e-05 3.74903e-06
-0.01037 0.000276706 3.12683 0.00961107 23.456 6.64105e-05 3.62872e-06
-0.00864167 0.000276706 3.01638 0.0104003 24.1754 6.57998e-05 3.5023e-06
-0.00691333 0.000276706 2.89658 0.0113873 24.941 6.51276e-05 3.3668e-06
-0.005185 0.000276706 2.76462 0.0124728 25.7402 6.43985e-05 3.22408e-06
-0.00345667 0.000276706 2.61948 0.0140219 26.603 6.35783e-05 3.06875e-06
-0.00172833 0.000276706 2.45572 0.0152648 27.4941 6.26547e-05 2.90029e-06
0 0.000276706 2.2503 0.0256082 28.4921 6.15159e-05 2.7018e-06
-0.0864167 0.000340503 5.50769 0.00243334 10.0276 0.000103918 1.88407e-05
-0.0846883 0.000340503 5.51872 0.0107861 10.3448 9.01888e-05 1.14052e-05
-0.08296 0.000340503 5.57942 -0.00251058 10.234 9.58376e-05 1.41838e-05
-0.0812317 0.000340503 5.63831 -0.00624963 10.5558 9.7038e-05 1.48244e-05
-0.0795033 0.000340503 5.68786 -0.00538363 10.6727 9.63683e-05 1.44649e-05
-0.077775 0.000340503 5.71007 -0.00246699 10.8965 9.51427e-05 1.38211e-05
-0.0760467 0.000340503 5.7159 -0.000288594 10.9823 9.41399e-05 1.3308e-05
-0.0743183 0.000340503 5.70698 0.00137567 11.1309 9.34926e-05 1.29834e-05
-0.07259 0.000340503 5.69196 0.00217949 11.218 9.30945e-05 1.27862e-05
-0.0708617 0.000340503 5.67156 0.00271092 11.3547 9.28522e-05 1.26671e-05
-0.0691333 0.000340503 5.64949 0.00293139 11.4658 9.26749e-05 1.25805e-05
-0.067405 0.000340503 5.62517 0.00312326 11.6126 9.25318e-05 1.25108e-05
-0.0656767 0.000340503 5.60009 0.00322747 11.7492 9.23945e-05 1.24442e-05
-0.0639483 0.000340503 5.57354 0.00335788 11.9114 9.22608e-05 1.23796e-05
-0.06222 0.000340503 5.54624 0.00346115 12.0715 9.2122e-05 1.23127e-05
-0.0604917 0.000340503 5.51766 0.00358957 12.2509 9.19807e-05 1.22448e-05
-0.0587633 0.000340503 5.48818 0.00370789 12.4332 9.18328e-05 1.21741e-05
-0.057035 0.000340503 5.45743 0.00384448 12.6315 9.16806e-05 1.21015e-05
-0.0553067 0.000340503 5.42564 0.00397815 12.8359 9.15216e-05 1.20261e-05
-0.0535783 0.000340503 5.39254 0.00412576 13.0546 9.13572e-05 1.19483e-05
-0.05185 0.000340503 5.35825 0.00427483 13.2816 9.11856e-05 1.18675e-05
-0.0501217 0.000340503 5.32257 0.00443581 13.5221 9.10076e-05 1.17841e-05
-0.0483933 0.000340503 5.28555 0.00460146 13.7727 9.08221e-05 1.16976e-05
-0.046665 0.000340503 5.24703 0.00477852 14.0367 9.06294e-05 1.16081e-05
-0.0449367 0.000340503 5.207 0.00496293 14.3122 9.04284e-05 1.15153e-05
-0.0432083 0.000340503 5.16533 0.00515931 14.6014 9.02192e-05 1.14192e-05
-0.04148 0.000340503 5.12197 0.00536559 14.9034 9.00011e-05 1.13195e-05
-0.0397517 0.000340503 5.07678 0.00558523 15.2197 8.97739e-05 1.12162e-05
-0.0380233 0.000340503 5.02968 0.00581752 15.5501 8.95367e-05 1.11092e-05
-0.036295 0.000340503 4.98054 0.00606537 15.8958 8.92892e-05 1.09981e-05
-0.0345667 0.000340503 4.92922 0.00632909 16.2568 8.90306e-05 1.08829e-05
-0.0328383 0.000340503 4.87558 0.0066115 16.6343 8.87604e-05 1.07633e-05
-0.03111 0.000340503 4.81947 0.0069138 17.0287 8.84777e-05 1.06391e-05
-0.0293817 0.000340503 4.76067 0.0072391 17.4408 8.81818e-05 1.05102e-05
-0.0276533 0.000340503 4.69902 0.00758957 17.8716 8.78717e-05 1.03761e-05
-0.025925 0.000340503 4.63424 0.00796902 18.3218 8.75464e-05 1.02367e-05
-0.0241967 0.000340503 4.56612 0.00838094 18.7927 8.72047e-05 1.00915e-05
-0.0224683 0.000340503 4.49432 0.00883024 19.2848 8.68455e-05 9.94046e-06
-0.02074 0.000340503 4.41853 0.00932262 19.8002 8.6467e-05 9.78286e-06
-0.0190117 0.000340503 4.33831 0.00986451 20.3391 8.60681e-05 9.61856e-06
-0.0172833 0.000340503 4.25327 0.010466 20.9045 8.56459e-05 9.44669e-06
-0.015555 0.000340503 4.16278 0.0111349 21.4958 8.51996e-05 9.26722e-06
-0.0138267 0.000340503 4.0663 0.0118914 22.1179 8.47246e-05 9.07869e-06
-0.0120983 0.000340503 3.96289 0.0127429 22.7688 8.42207e-05 8.88151e-06
-0.01037 0.000340503 3.8518 0.0137363 23.4565 8.36797e-05 8.67301e-06
-0.00864167 0.000340503 3.73149 0.0148634 24.176 8.31039e-05 8.45473e-06
-0.00691333 0.000340503 3.60086 0.0162612 24.9416 8.24772e-05 8.22133e-06
-0.005185 0.000340503 3.45707 0.0178216 25.7411 8.18094e-05 7.97743e-06
-0.00345667 0.000340503 3.29859 0.0199594 26.6038 8.10656e-05 7.71157e-06
-0.00172833 0.000340503 3.1197 0.0220544 27.4956 8.02196e-05 7.41652e-06
0 0.000340503 2.89665 0.0353223 28.4923 7.91721e-05 7.06191e-06
-0.0864167 0.000407448 6.17409 0.00312839 9.85554 0.000118139 2.90032e-05
-0.0846883 0.000407448 6.21387 0.00774556 10.383 0.000110964 2.35646e-05
-0.08296 0.000407448 6.29505 -0.00492014 10.2286 0.000116828 2.79627e-05
-0.0812317 0.000407448 6.35399 -0.00847844 10.5576 0.000118256 2.90965e-05
-0.0795033 0.000407448 6.40086 -0.00672329 10.6708 0.000117041 2.81301e-05
-0.077775 0.000407448 6.42284 -0.00297468 10.8951 0.000115119 2.66378e-05
-0.0760467 0.000407448 6.42967 -0.00020223 10.9815 0.000113503 2.54178e-05
-0.0743183 0.000407448 6.42236 0.00184824 11.1304 0.000112429 2.4624e-05
-0.07259 0.000407448 6.40849 0.00287291 11.218 0.000111764 2.41399e-05
-0.0708617 0.000407448 6.3889 0.00353667 11.3548 0.000111365 2.38524e-05
-0.0691333 0.000407448 6.3671 0.00383835 11.466 0.000111096 2.36593e-05
-0.067405 0.000407448 6.34278 0.00408882 11.6128 0.000110897 2.35173e-05
-0.0656767 0.000407448 6.31739 0.00424082 11.7495 0.000110724 2.3394e-05
-0.0639483 0.000407448 6.29039 0.00441502 11.9117 0.000110566 2.32818e-05
-0.06222 0.000407448 6.26246 0.00456119 12.0718 0.00011041 2.31712e-05
-0.0604917 0.000407448 6.23317 0.00473271 12.2512 0.000110256 2.30622e-05
-0.0587633 0.000407448 6.20287 0.00489543 12.4336 0.000110098 2.29511e-05
-0.057035 0.000407448 6.17124 0.00507773 12.6319 0.000109938 2.28388e-05
-0.0553067 0.000407448 6.13846 0.00525904 12.8363 0.000109773 2.27232e-05
-0.0535783 0.000407448 6.10433 0.00545613 13.0549 0.000109604 2.26051e-05
-0.05185 0.000407448 6.06892 0.00565699 13.282 0.000109429 2.24831e-05
-0.0501217 0.000407448 6.03207 0.00587207 13.5225 0.000109248 2.23577e-05
-0.0483933 0.000407448 5.9938 0.00609453 13.7731 0.000109061 2.22281e-05
-0.046665 0.000407448 5.95397 0.0063312 14.0371 0.000108867 2.20944e-05
-0.0449367 0.000407448 5.91255 0.00657843 14.3126 0.000108666 2.19559e-05
-0.0432083 0.000407448 5.86941 0.00684101 14.6018 0.000108457 2.18129e-05
-0.04148 0.000407448 5.82451 0.00711731 14.9038 0.000108239 2.16647e-05
-0.0397517 0.000407448 5.7777 0.00741107 15.2202 0.000108013 2.15113e-05
-0.0380233 0.000407448 5.72889 0.00772208 15.5506 0.000107778 2.13524e-05
-0.036295 0.000407448 5.67794 0.00805365 15.8963 0.000107534 2.11877e-05
-0.0345667 0.000407448 5.62473 0.00840669 16.2574 0.000107279 2.10169e-05
-0.0328383 0.000407448 5.56909 0.00878455 16.6348 0.000107013 2.08398e-05
-0.03111 0.000407448 5.51086 0.00918923 17.0293 0.000106736 2.06559e-05
-0.0293817 0.000407448 5.44984 0.00962454 17.4414 0.000106447 2.04652e-05
-0.0276533 0.000407448 5.38582 0.0100938 17.8722 0.000106145 2.0267e-05
-0.025925 0.000407448 5.31855 0.0106016 18.3224 0.000105829 2.00611e-05
-0.0241967 0.000407448 5.24778 0.0111531 18.7933 0.000105499 1.98471e-05
-0.0224683 0.000407448 5.17317 0.0117545 19.2855 0.000105154 1.96246e-05
-0.02074 0.000407448 5.09439 0.0124139 19.801 0.000104792 1.93929e-05
-0.0190117 0.000407448 5.01099 0.0131391 20.3399 0.000104412 1.91519e-05
-0.0172833 0.000407448 4.92255 0.0139446 20.9053 0.000104013 1.89005e-05
-0.015555 0.000407448 4.82842 0.0148398 21.4967 0.000103595 1.86388e-05
-0.0138267 0.000407448 4.72802 0.0158527 22.1188 0.000103153 1.83651e-05
-0.0120983 0.000407448 4.62041 0.0169922 22.7698 0.00010269 1.80803e-05
-0.01037 0.000407448 4.50477 0.0183221 23.4575 0.000102197 1.7781e-05
-0.00864167 0.000407448 4.37954 0.0198357 24.177 0.000101681 1.74704e-05
-0.00691333 0.000407448 4.24351 0.0217042 24.9427 0.000101128 1.71413e-05
-0.005185 0.000407448 4.09388 0.0238191 25.7423 0.000100555 1.68037e-05
-0.00345667 0.000407448 3.92878 0.0266223 26.6047 9.99268e-05 1.64391e-05
-0.00172833 0.000407448 3.74228 0.0297228 27.4977 9.92008e-05 1.60236e-05
0 0.000407448 3.51266 0.045796 28.4925 9.83431e-05 1.55411e-05
-0.0864167 0.000477696 6.74141 0.00383652 9.70602 0.000132763 4.19403e-05