TITLE = PHILL
VARIABLES = "X" ,  "Y" , "ub" , "vb" , "pb" , "nutb" , "nuT" 
ZONE   N=33516,E=66264,F=FEPOINT,ET=TRIANGLE
-0.0864167 0 7.78295e-41 3.13094e-39 16.0136 -3.73071e-43 3.82276e-159
-0.0846883 0 -2.76824e-40 -2.1327e-39 15.8522 -8.45526e-44 1.0086e-161
-0.08296 0 -7.2672e-40 2.70726e-39 15.9284 -1.69025e-42 1.61068e-156
-0.0812317 0 3.288e-40 -8.92637e-41 16.2612 3.3813e-42 2.57954e-155
-0.0795033 0 -1.9522e-40 -2.63495e-39 16.4308 -3.82491e-42 4.22371e-155
-0.077775 0 1.6848e-40 5.45264e-40 16.6903 2.72454e-42 1.08738e-155
-0.0760467 0 -3.74162e-42 -1.73217e-39 16.8144 -1.38493e-42 7.25971e-157
-0.0743183 0 8.3204e-41 -1.69499e-40 17.0048 5.59192e-43 1.92954e-158
-0.07259 0 -4.27064e-42 -8.59968e-40 17.1363 -1.53275e-43 1.08917e-160
-0.0708617 0 4.70368e-41 -2.1509e-40 17.3225 9.73758e-44 1.77424e-161
-0.0691333 0 1.10493e-41 -6.46988e-40 17.4853 -1.52254e-44 1.06045e-164
-0.067405 0 3.90186e-41 -3.113e-40 17.6888 2.18228e-44 4.47561e-164
-0.0656767 0 1.94071e-41 -5.5418e-40 17.8843 -4.19992e-45 6.14009e-167
-0.0639483 0 3.62866e-41 -3.6541e-40 18.1101 1.66916e-44 1.53178e-164
-0.06222 0 2.60929e-41 -5.32868e-40 18.3362 8.97495e-45 1.28038e-165
-0.0604917 0 3.63189e-41 -4.25228e-40 18.5862 2.28852e-44 5.4129e-164
-0.0587633 0 2.87725e-41 -5.20347e-40 18.8417 1.76806e-44 1.92841e-164
-0.057035 0 3.3084e-41 -4.37675e-40 19.1176 2.52797e-44 8.05932e-164
-0.0553067 0 2.64505e-41 -4.84982e-40 19.4025 2.04197e-44 3.43091e-164
-0.0535783 0 2.77268e-41 -4.26154e-40 19.7058 2.42477e-44 6.82164e-164
-0.05185 0 2.25202e-41 -4.54121e-40 20.0205 1.96789e-44 2.95946e-164
-0.0501217 0 2.25858e-41 -4.16252e-40 20.3528 2.08971e-44 3.76314e-164
-0.0483933 0 1.86149e-41 -4.33774e-40 20.6983 1.64032e-44 1.42863e-164
-0.046665 0 1.80224e-41 -4.08556e-40 21.0614 1.56615e-44 1.18727e-164
-0.0449367 0 1.48626e-41 -4.18419e-40 21.439 1.13032e-44 3.22115e-165
-0.0432083 0 1.38514e-41 -4.00792e-40 21.8344 9.25138e-45 1.44556e-165
-0.04148 0 1.12354e-41 -4.05771e-40 22.2457 5.30341e-45 1.5611e-166
-0.0397517 0 9.93202e-42 -3.93538e-40 22.6756 2.42569e-45 6.83205e-168
-0.0380233 0 7.58417e-42 -3.95874e-40 23.1223 -9.83001e-46 1.84258e-169
-0.036295 0 5.77923e-42 -3.87984e-40 23.5886 -4.65746e-45 9.28551e-167
-0.0345667 0 2.93105e-42 -3.89218e-40 24.0727 -7.67061e-45 6.8317e-166
-0.0328383 0 -3.61165e-43 -3.83419e-40 24.5778 -1.21477e-44 4.29723e-165
-0.03111 0 -3.40948e-42 -3.74555e-40 25.1016 -1.29626e-44 5.57153e-165
-0.0293817 0 -1.40725e-42 -3.52417e-40 25.648 -1.44599e-44 8.62733e-165
-0.0276533 0 1.12088e-41 -3.49587e-40 26.2138 -1.63785e-44 1.42008e-164
-0.025925 0 2.97836e-41 -4.07588e-40 26.8043 -4.65775e-44 9.28784e-163
-0.0241967 0 4.2626e-41 -4.96415e-40 27.4148 -7.63049e-44 6.68991e-162
-0.0224683 0 4.16843e-41 -5.61328e-40 28.0527 -8.46174e-44 1.01169e-161
-0.02074 0 3.16716e-41 -5.57084e-40 28.7106 -4.49014e-44 8.02138e-163
-0.0190117 0 1.72568e-41 -5.19105e-40 29.3993 -1.17651e-44 3.78085e-165
-0.0172833 0 4.98576e-42 -4.46316e-40 30.1074 2.59013e-44 8.88164e-164
-0.015555 0 -4.85683e-42 -3.87716e-40 30.851 2.48679e-44 7.5468e-164
-0.0138267 0 -5.97443e-42 -3.16952e-40 31.6122 3.36163e-44 2.52005e-163
-0.0120983 0 -4.6609e-42 -3.37754e-40 32.4148 9.25588e-47 1.44837e-173
-0.01037 0 -3.52344e-42 -3.55921e-40 33.2321 -1.26229e-44 5.01011e-165
-0.00864167 0 -8.8728e-42 -3.23617e-40 34.0983 -7.46216e-45 6.11882e-166
-0.00691333 0 6.03512e-42 -2.97326e-40 34.9746 1.63354e-44 1.40518e-164
-0.005185 0 6.34667e-42 -3.51665e-40 35.9083 -3.37713e-44 2.56685e-163
-0.00345667 0 1.10775e-41 -5.69915e-40 36.8472 -2.74596e-44 1.12198e-163
-0.00172833 0 -1.96867e-41 -4.3862e-40 37.848 -1.17078e-43 3.7078e-161
0 0 8.98884e-42 1.61466e-40 38.8554 5.56493e-43 1.89256e-158
-0.0864167 5.02e-05 0.942594 9.15291e-05 16.0151 2.6214e-05 9.28538e-08
-0.0846883 5.02e-05 0.909084 0.000669319 15.8549 7.33614e-06 5.7154e-10
-0.08296 5.02e-05 0.876863 0.000117653 15.9281 1.50642e-05 1.01556e-08
-0.0812317 5.02e-05 0.877437 -7.98262e-05 16.2613 1.30447e-05 5.7116e-09
-0.0795033 5.02e-05 0.890738 -0.000196953 16.4302 1.38108e-05 7.17572e-09
-0.077775 5.02e-05 0.899027 -4.96667e-05 16.6902 1.36274e-05 6.80213e-09
-0.0760467 5.02e-05 0.903867 -4.52186e-05 16.8144 1.37001e-05 6.94842e-09
-0.0743183 5.02e-05 0.901768 5.33306e-05 17.0049 1.36591e-05 6.86563e-09
-0.07259 5.02e-05 0.897792 4.73632e-05 17.1365 1.36321e-05 6.81146e-09
-0.0708617 5.02e-05 0.89099 8.6777e-05 17.3227 1.35873e-05 6.72236e-09
-0.0691333 5.02e-05 0.884044 7.61599e-05 17.4856 1.35413e-05 6.63194e-09
-0.067405 5.02e-05 0.876008 9.34698e-05 17.6891 1.34907e-05 6.53345e-09
-0.0656767 5.02e-05 0.868117 8.63961e-05 17.8846 1.34389e-05 6.43365e-09
-0.0639483 5.02e-05 0.859616 9.6439e-05 18.1104 1.33844e-05 6.32995e-09
-0.06222 5.02e-05 0.851149 9.3253e-05 18.3365 1.33284e-05 6.22471e-09
-0.0604917 5.02e-05 0.84221 0.000100434 18.5865 1.327e-05 6.11629e-09
-0.0587633 5.02e-05 0.833173 9.99045e-05 18.8421 1.32096e-05 6.00585e-09
-0.057035 5.02e-05 0.823713 0.00010573 19.118 1.31468e-05 5.89236e-09
-0.0553067 5.02e-05 0.814055 0.000106941 19.4028 1.30816e-05 5.77647e-09
-0.0535783 5.02e-05 0.803991 0.000112118 19.7062 1.30137e-05 5.65753e-09
-0.05185 5.02e-05 0.793652 0.000114548 20.0209 1.29432e-05 5.53593e-09
-0.0501217 5.02e-05 0.782903 0.000119478 20.3532 1.28697e-05 5.41123e-09
-0.0483933 5.02e-05 0.771818 0.00012285 20.6987 1.27931e-05 5.28366e-09
-0.046665 5.02e-05 0.760304 0.000127783 21.0618 1.27132e-05 5.15295e-09
-0.0449367 5.02e-05 0.748397 0.000131965 21.4394 1.26299e-05 5.01922e-09
-0.0432083 5.02e-05 0.736033 0.000137062 21.8349 1.25428e-05 4.88231e-09
-0.04148 5.02e-05 0.72322 0.000142023 22.2462 1.24519e-05 4.74227e-09
-0.0397517 5.02e-05 0.709915 0.000147391 22.676 1.23567e-05 4.59902e-09
-0.0380233 5.02e-05 0.6961 0.000153179 23.1228 1.22572e-05 4.45256e-09
-0.036295 5.02e-05 0.68175 0.00015889 23.5891 1.21528e-05 4.30289e-09
-0.0345667 5.02e-05 0.666822 0.000165622 24.0733 1.20433e-05 4.14998e-09
-0.0328383 5.02e-05 0.651307 0.000171716 24.5783 1.19284e-05 3.99389e-09
-0.03111 5.02e-05 0.635137 0.000179596 25.1022 1.18076e-05 3.83455e-09
-0.0293817 5.02e-05 0.61832 0.000186075 25.6486 1.16805e-05 3.67211e-09
-0.0276533 5.02e-05 0.600753 0.000195411 26.2145 1.15464e-05 3.50648e-09
-0.025925 5.02e-05 0.582472 0.000202227 26.805 1.14051e-05 3.3379e-09
-0.0241967 5.02e-05 0.563322 0.000213467 27.4155 1.12555e-05 3.16625e-09
-0.0224683 5.02e-05 0.543384 0.000220506 28.0534 1.10972e-05 2.9919e-09
-0.02074 5.02e-05 0.522426 0.000234294 28.7113 1.09291e-05 2.81469e-09
-0.0190117 5.02e-05 0.500593 0.00024135 29.4001 1.07505e-05 2.6352e-09
-0.0172833 5.02e-05 0.477549 0.000258592 30.1082 1.05598e-05 2.45318e-09
-0.015555 5.02e-05 0.45353 0.000265368 30.8518 1.03563e-05 2.26955e-09
-0.0138267 5.02e-05 0.428048 0.000287305 31.6131 1.01377e-05 2.08394e-09
-0.0120983 5.02e-05 0.401468 0.000293476 32.4158 9.90323e-06 1.89773e-09
-0.01037 5.02e-05 0.373101 0.00032177 33.2332 9.6492e-06 1.7104e-09
-0.00864167 5.02e-05 0.343451 0.000327062 34.0993 9.3749e-06 1.52407e-09
-0.00691333 5.02e-05 0.311613 0.000364469 34.9758 9.07487e-06 1.33816e-09
-0.005185 5.02e-05 0.278152 0.000366029 35.9095 8.74844e-06 1.15578e-09
-0.00345667 5.02e-05 0.242286 0.000423293 36.8487 8.39172e-06 9.78503e-10
-0.00172833 5.02e-05 0.204379 0.000374493 37.8489 8.00071e-06 8.085e-10
0 5.02e-05 0.16046 0.00132715 38.8556 7.60803e-06 6.61091e-10
-0.0864167 0.000102236 1.91162 0.000358676 16.0054 4.39199e-05 7.22195e-07
-0.0846883 0.000102236 1.84413 0.00306832 15.8603 2.06789e-05 3.60216e-08
-0.08296 0.000102236 1.79588 0.000373654 15.9258 2.92901e-05 1.44526e-07
-0.0812317 0.000102236 1.80122 -0.000477889 16.2621 2.73817e-05 1.10483e-07
-0.0795033 0.000102236 1.82626 -0.000768137 16.4298 2.81371e-05 1.23147e-07
-0.077775 0.000102236 1.8414 -0.000309454 16.6902 2.7969e-05 1.20239e-07
-0.0760467 0.000102236 1.849 -8.60284e-05 16.8144 2.80069e-05 1.20891e-07
-0.0743183 0.000102236 1.84466 0.00022595 17.0049 2.79389e-05 1.19724e-07
-0.07259 0.000102236 1.83646 0.000305172 17.1365 2.78759e-05 1.18652e-07
-0.0708617 0.000102236 1.8235 0.000415251 17.3227 2.7796e-05 1.17302e-07
-0.0691333 0.000102236 1.80997 0.000422971 17.4856 2.77114e-05 1.15884e-07
-0.067405 0.000102236 1.79463 0.00046548 17.6891 2.76213e-05 1.14388e-07
-0.0656767 0.000102236 1.77933 0.000465091 17.8846 2.75271e-05 1.12842e-07
-0.0639483 0.000102236 1.763 0.00049124 18.1104 2.74291e-05 1.11247e-07
-0.06222 0.000102236 1.74658 0.000496258 18.3365 2.73271e-05 1.09607e-07
-0.0604917 0.000102236 1.72934 0.000518484 18.5866 2.72211e-05 1.07922e-07
-0.0587633 0.000102236 1.7118 0.000528948 18.8421 2.71109e-05 1.0619e-07
-0.057035 0.000102236 1.6935 0.000550319 19.118 2.69963e-05 1.04411e-07
-0.0553067 0.000102236 1.67475 0.000564943 19.4028 2.6877e-05 1.02582e-07
-0.0535783 0.000102236 1.65523 0.000586653 19.7062 2.67528e-05 1.00704e-07
-0.05185 0.000102236 1.63514 0.000604644 20.0209 2.66233e-05 9.87738e-08
-0.0501217 0.000102236 1.61427 0.0006274 20.3532 2.64883e-05 9.6791e-08
-0.0483933 0.000102236 1.59271 0.000648396 20.6988 2.63474e-05 9.47543e-08
-0.046665 0.000102236 1.57032 0.000672708 21.0618 2.62004e-05 9.26624e-08
-0.0449367 0.000102236 1.54715 0.000696633 21.4394 2.60468e-05 9.05143e-08
-0.0432083 0.000102236 1.52308 0.00072292 21.8349 2.58863e-05 8.83087e-08
-0.04148 0.000102236 1.49812 0.000749914 22.2462 2.57183e-05 8.60449e-08
-0.0397517 0.000102236 1.4722 0.000778568 22.6761 2.55425e-05 8.37216e-08
-0.0380233 0.000102236 1.44527 0.000808955 23.1228 2.53583e-05 8.13381e-08
-0.036295 0.000102236 1.41728 0.000840374 23.5891 2.51651e-05 7.88934e-08
-0.0345667 0.000102236 1.38815 0.000874669 24.0733 2.49623e-05 7.6387e-08
-0.0328383 0.000102236 1.35786 0.000909278 24.5784 2.47493e-05 7.38178e-08
-0.03111 0.000102236 1.32629 0.000948221 25.1022 2.45251e-05 7.11857e-08
-0.0293817 0.000102236 1.29343 0.000986483 25.6486 2.4289e-05 6.84897e-08
-0.0276533 0.000102236 1.2591 0.0010311 26.2145 2.40401e-05 6.57302e-08
-0.025925 0.000102236 1.22334 0.00107353 26.8051 2.37771e-05 6.29061e-08
-0.0241967 0.000102236 1.18589 0.00112524 27.4156 2.34989e-05 6.0019e-08
-0.0224683 0.000102236 1.14685 0.00117239 28.0535 2.3204e-05 5.70676e-08
-0.02074 0.000102236 1.10582 0.00123316 28.7114 2.28909e-05 5.40547e-08
-0.0190117 0.000102236 1.06302 0.00128567 29.4002 2.25576e-05 5.09795e-08
-0.0172833 0.000102236 1.01787 0.00135824 30.1083 2.22021e-05 4.78464e-08
-0.015555 0.000102236 0.970704 0.00141693 30.8519 2.18218e-05 4.4656e-08
-0.0138267 0.000102236 0.920726 0.00150521 31.6132 2.14139e-05 4.14143e-08
-0.0120983 0.000102236 0.868446 0.00157125 32.4158 2.09749e-05 3.81256e-08
-0.01037 0.000102236 0.812727 0.00168108 33.2332 2.05008e-05 3.4798e-08
-0.00864167 0.000102236 0.754297 0.00175615 34.0994 1.99873e-05 3.14443e-08
-0.00691333 0.000102236 0.691638 0.00189773 34.9758 1.94284e-05 2.80754e-08
-0.005185 0.000102236 0.625565 0.00197688 35.9095 1.88201e-05 2.47244e-08
-0.00345667 0.000102236 0.554691 0.0021648 36.8488 1.81613e-05 2.1443e-08
-0.00172833 0.000102236 0.479686 0.00200187 37.8496 1.74476e-05 1.82681e-08
0 0.000102236 0.392168 0.00394201 38.8568 1.67377e-05 1.54737e-08
-0.0864167 0.000156174 2.87924 0.000792694 15.9715 5.98842e-05 2.43463e-06
-0.0846883 0.000156174 2.79302 0.00645811 15.8736 3.58862e-05 3.24321e-07
-0.08296 0.000156174 2.74861 0.00046753 15.9214 4.38829e-05 7.19797e-07
-0.0812317 0.000156174 2.76467 -0.00120792 16.2634 4.26621e-05 6.43836e-07
-0.0795033 0.000156174 2.80001 -0.00160278 16.4293 4.32048e-05 6.7683e-07
-0.077775 0.000156174 2.8197 -0.000696454 16.6902 4.30173e-05 6.6529e-07
-0.0760467 0.000156174 2.8276 -0.000105565 16.8144 4.29526e-05 6.61347e-07
-0.0743183 0.000156174 2.82045 0.000498529 17.005 4.28341e-05 6.54163e-07
-0.07259 0.000156174 2.8078 0.000721637 17.1366 4.27258e-05 6.47647e-07
-0.0708617 0.000156174 2.78936 0.000924619 17.3228 4.26151e-05 6.41033e-07
-0.0691333 0.000156174 2.76984 0.000971263 17.4858 4.24997e-05 6.34199e-07
-0.067405 0.000156174 2.74809 0.00104568 17.6892 4.23813e-05 6.27236e-07
-0.0656767 0.000156174 2.72614 0.00106296 17.8848 4.22563e-05 6.19952e-07
-0.0639483 0.000156174 2.70287 0.00111033 18.1106 4.21271e-05 6.12484e-07
-0.06222 0.000156174 2.67929 0.00113277 18.3367 4.19913e-05 6.04713e-07
-0.0604917 0.000156174 2.65461 0.00117626 18.5867 4.18506e-05 5.9673e-07
-0.0587633 0.000156174 2.62939 0.00120691 18.8423 4.17032e-05 5.88459e-07
-0.057035 0.000156174 2.60311 0.00125137 19.1182 4.15501e-05 5.79952e-07
-0.0553067 0.000156174 2.57611 0.00128903 19.403 4.139e-05 5.71156e-07
-0.0535783 0.000156174 2.54803 0.00133607 19.7064 4.12232e-05 5.62101e-07
-0.05185 0.000156174 2.51907 0.00137991 20.0211 4.10489e-05 5.52751e-07
-0.0501217 0.000156174 2.48898 0.00143049 20.3535 4.08671e-05 5.4312e-07
-0.0483933 0.000156174 2.45786 0.00148025 20.699 4.06771e-05 5.33185e-07
-0.046665 0.000156174 2.42554 0.00153518 21.062 4.04785e-05 5.22951e-07
-0.0449367 0.000156174 2.39204 0.00159099 21.4397 4.02708e-05 5.12399e-07
-0.0432083 0.000156174 2.35725 0.00165102 21.8352 4.00535e-05 5.01531e-07
-0.04148 0.000156174 2.32113 0.00171337 22.2465 3.98259e-05 4.90332e-07
-0.0397517 0.000156174 2.2836 0.00177933 22.6763 3.95874e-05 4.78799e-07
-0.0380233 0.000156174 2.24458 0.001849 23.1231 3.93374e-05 4.66923e-07
-0.036295 0.000156174 2.20401 0.00192185 23.5894 3.90749e-05 4.54694e-07
-0.0345667 0.000156174 2.16177 0.00199998 24.0736 3.87993e-05 4.42108e-07
-0.0328383 0.000156174 2.11781 0.00208081 24.5787 3.85094e-05 4.29151e-07
-0.03111 0.000156174 2.07196 0.00216895 25.1025 3.82044e-05 4.15824e-07
-0.0293817 0.000156174 2.0242 0.0022591 25.6489 3.78827e-05 4.02107e-07
-0.0276533 0.000156174 1.9743 0.00235933 26.2148 3.75436e-05 3.88008e-07
-0.025925 0.000156174 1.92226 0.00246041 26.8054 3.71848e-05 3.73498e-07
-0.0241967 0.000156174 1.86775 0.00257551 27.4159 3.68055e-05 3.58599e-07
-0.0224683 0.000156174 1.81083 0.00268949 28.0539 3.64028e-05 3.43269e-07
-0.02074 0.000156174 1.75105 0.0028233 28.7118 3.59757e-05 3.27546e-07
-0.0190117 0.000156174 1.68855 0.00295266 29.4006 3.55201e-05 3.11373e-07
-0.0172833 0.000156174 1.62265 0.00311051 30.1087 3.50349e-05 2.94812e-07
-0.015555 0.000156174 1.55366 0.00325847 30.8524 3.45148e-05 2.77792e-07
-0.0138267 0.000156174 1.4806 0.0034481 31.6137 3.39582e-05 2.60403e-07
-0.0120983 0.000156174 1.40396 0.00361909 32.4164 3.33579e-05 2.42568e-07
-0.01037 0.000156174 1.32235 0.00385265 33.2338 3.2712e-05 2.24414e-07
-0.00864167 0.000156174 1.23649 0.00405247 34.1 3.20115e-05 2.05888e-07
-0.00691333 0.000156174 1.14448 0.00435232 34.9765 3.12541e-05 1.87167e-07
-0.005185 0.000156174 1.04713 0.00457688 35.9102 3.04323e-05 1.68322e-07
-0.00345667 0.000156174 0.942584 0.0050149 36.8493 2.95526e-05 1.49756e-07
-0.00172833 0.000156174 0.831682 0.00498565 37.8499 2.86193e-05 1.31778e-07
0 0.000156174 0.701441 0.00832575 38.8569 2.76851e-05 1.15446e-07
-0.0864167 0.000212085 3.80545 0.00137558 15.8972 7.45193e-05 5.62592e-06
-0.0846883 0.000212085 3.72964 0.00973897 15.8966 5.22273e-05 1.4281e-06
-0.08296 0.000212085 3.71057 0.000101537 15.9152 5.92189e-05 2.33135e-06
-0.0812317 0.000212085 3.74299 -0.00240088 16.2653 5.88806e-05 2.28006e-06
-0.0795033 0.000212085 3.78635 -0.00263552 16.4288 5.91119e-05 2.31504e-06
-0.077775 0.000212085 3.80739 -0.0011165 16.6901 5.87769e-05 2.2645e-06
-0.0760467 0.000212085 3.81303 -3.30741e-05 16.8143 5.85304e-05 2.22784e-06
-0.0743183 0.000212085 3.80238 0.00091855 17.0049 5.83178e-05 2.19655e-06
-0.07259 0.000212085 3.78537 0.00132765 17.1367 5.81494e-05 2.172e-06
-0.0708617 0.000212085 3.76233 0.00163886 17.3229 5.8007e-05 2.15138e-06
-0.0691333 0.000212085 3.73781 0.00174195 17.4859 5.78679e-05 2.13139e-06
-0.067405 0.000212085 3.7109 0.00185573 17.6893 5.77312e-05 2.11187e-06
-0.0656767 0.000212085 3.68348 0.00190232 17.8849 5.75872e-05 2.09145e-06
-0.0639483 0.000212085 3.65456 0.00197809 18.1106 5.74393e-05 2.07062e-06
-0.06222 0.000212085 3.62507 0.00202843 18.3368 5.72829e-05 2.04876e-06
-0.0604917 0.000212085 3.59426 0.00210142 18.5868 5.71207e-05 2.02628e-06
-0.0587633 0.000212085 3.56265 0.00216283 18.8424 5.69502e-05 2.00282e-06
-0.057035 0.000212085 3.52974 0.00223986 19.1183 5.67728e-05 1.97863e-06
-0.0553067 0.000212085 3.49583 0.00231175 19.4031 5.65867e-05 1.95348e-06
-0.0535783 0.000212085 3.46059 0.00239486 19.7065 5.63927e-05 1.92751e-06
-0.05185 0.000212085 3.42415 0.00247661 20.0212 5.61894e-05 1.90056e-06
-0.0501217 0.000212085 3.3863 0.00256706 20.3536 5.59771e-05 1.87272e-06
-0.0483933 0.000212085 3.34709 0.0026587 20.6991 5.57547e-05 1.84386e-06
-0.046665 0.000212085 3.30635 0.00275765 21.0622 5.55221e-05 1.81404e-06
-0.0449367 0.000212085 3.26408 0.00285971 21.4398 5.52784e-05 1.78317e-06
-0.0432083 0.000212085 3.22015 0.00296841 21.8353 5.50233e-05 1.75125e-06
-0.04148 0.000212085 3.1745 0.00308193 22.2466 5.47558e-05 1.71824e-06
-0.0397517 0.000212085 3.12702 0.00320183 22.6765 5.44753e-05 1.68411e-06
-0.0380233 0.000212085 3.07762 0.00332831 23.1232 5.41809e-05 1.64882e-06
-0.036295 0.000212085 3.02621 0.00346118 23.5896 5.38717e-05 1.61234e-06
-0.0345667 0.000212085 2.97265 0.00360266 24.0738 5.35468e-05 1.57464e-06
-0.0328383 0.000212085 2.91684 0.00375065 24.5788 5.32048e-05 1.53566e-06
-0.03111 0.000212085 2.8586 0.00390986 25.1027 5.28449e-05 1.49539e-06
-0.0293817 0.000212085 2.79786 0.00407565 25.6491 5.2465e-05 1.45374e-06
-0.0276533 0.000212085 2.73436 0.00425617 26.215 5.20645e-05 1.41073e-06
-0.025925 0.000212085 2.66804 0.00444308 26.8056 5.16404e-05 1.36623e-06
-0.0241967 0.000212085 2.59855 0.00464967 27.4161 5.11921e-05 1.32031e-06
-0.0224683 0.000212085 2.52587 0.00486195 28.0541 5.07157e-05 1.27275e-06
-0.02074 0.000212085 2.4495 0.00510108 28.712 5.02106e-05 1.2237e-06
-0.0190117 0.000212085 2.3695 0.00534418 29.4008 4.96712e-05 1.17287e-06
-0.0172833 0.000212085 2.28514 0.00562484 30.109 4.90974e-05 1.12051e-06
-0.015555 0.000212085 2.1966 0.00590602 30.8526 4.8481e-05 1.0662e-06
-0.0138267 0.000212085 2.10284 0.00624139 31.6139 4.78225e-05 1.01033e-06
-0.0120983 0.000212085 2.00419 0.0065706 32.4167 4.71106e-05 9.5239e-07
-0.01037 0.000212085 1.89915 0.00698175 33.234 4.63466e-05 8.92961e-07
-0.00864167 0.000212085 1.78825 0.00737203 34.1003 4.5516e-05 8.31496e-07
-0.00691333 0.000212085 1.66941 0.00789764 34.9768 4.46214e-05 7.68834e-07
-0.005185 0.000212085 1.5432 0.00833157 35.9106 4.36501e-05 7.04826e-07
-0.00345667 0.000212085 1.40743 0.00903116 36.8498 4.2613e-05 6.4091e-07
-0.00172833 0.000212085 1.26283 0.00921504 37.8507 4.15098e-05 5.77732e-07
0 0.000212085 1.09209 0.0142492 38.8576 4.03842e-05 5.18141e-07
-0.0864167 0.00027004 4.65447 0.00207845 15.7761 8.83383e-05 1.05782e-05
-0.0846883 0.00027004 4.61549 0.0114837 15.9293 6.95089e-05 4.3202e-06
-0.08296 0.00027004 4.63688 -0.000927296 15.9078 7.56724e-05 5.9611e-06
-0.0812317 0.00027004 4.68616 -0.00406368 16.2675 7.61664e-05 6.10878e-06
-0.0795033 0.00027004 4.73359 -0.00375618 16.428 7.59651e-05 6.0483e-06
-0.077775 0.00027004 4.75311 -0.00148668 16.6899 7.52869e-05 5.84754e-06
-0.0760467 0.00027004 4.7552 0.000159479 16.8142 7.47501e-05 5.69194e-06
-0.0743183 0.00027004 4.74116 0.00147598 17.0048 7.43804e-05 5.58644e-06
-0.07259 0.00027004 4.72065 0.00208624 17.1368 7.41263e-05 5.51471e-06
-0.0708617 0.00027004 4.69432 0.00251189 17.3229 7.3943e-05 5.4634e-06
-0.0691333 0.00027004 4.66629 0.00268166 17.486 7.37816e-05 5.41845e-06
-0.067405 0.00027004 4.63581 0.00284161 17.6894 7.3632e-05 5.37703e-06
-0.0656767 0.00027004 4.60455 0.00292674 17.8851 7.34773e-05 5.33446e-06
-0.0639483 0.00027004 4.57167 0.00303815 18.1108 7.33201e-05 5.29142e-06
-0.06222 0.00027004 4.53795 0.00312519 18.337 7.31539e-05 5.24616e-06
-0.0604917 0.00027004 4.50277 0.00323549 18.587 7.29818e-05 5.19959e-06
-0.0587633 0.00027004 4.46655 0.00333665 18.8426 7.28002e-05 5.15076e-06
-0.057035 0.00027004 4.42886 0.00345484 19.1185 7.26112e-05 5.10029e-06
-0.0553067 0.00027004 4.38993 0.00357052 19.4033 7.24125e-05 5.04758e-06
-0.0535783 0.00027004 4.34945 0.00369923 19.7067 7.2205e-05 4.99297e-06
-0.05185 0.00027004 4.30754 0.00382927 20.0214 7.19872e-05 4.93607e-06
-0.0501217 0.00027004 4.26398 0.00397017 20.3538 7.17595e-05 4.87707e-06
-0.0483933 0.00027004 4.21879 0.00411506 20.6993 7.15205e-05 4.8157e-06
-0.046665 0.00027004 4.17181 0.00426979 21.0624 7.12704e-05 4.75204e-06
-0.0449367 0.00027004 4.12301 0.00443065 21.44 7.10081e-05 4.68589e-06
-0.0432083 0.00027004 4.07224 0.0046011 21.8355 7.07332e-05 4.61727e-06
-0.04148 0.00027004 4.01944 0.0047797 22.2469 7.04447e-05 4.54603e-06
-0.0397517 0.00027004 3.96448 0.00496817 22.6767 7.01421e-05 4.47211e-06
-0.0380233 0.00027004 3.90724 0.00516696 23.1235 6.98243e-05 4.39541e-06
-0.036295 0.00027004 3.84759 0.00537629 23.5898 6.94904e-05 4.31582e-06
-0.0345667 0.00027004 3.7854 0.00559854 24.0741 6.91395e-05 4.23327e-06
-0.0328383 0.00027004 3.72053 0.00583228 24.5792 6.87701e-05 4.14756e-06
-0.03111 0.00027004 3.65277 0.00608226 25.103 6.83813e-05 4.05869e-06
-0.0293817 0.00027004 3.58201 0.00634487 25.6494 6.7971e-05 3.96637e-06
-0.0276533 0.00027004 3.50796 0.00662815 26.2154 6.75385e-05 3.87066e-06
-0.025925 0.00027004 3.43052 0.0069253 26.806 6.70806e-05 3.77111e-06
-0.0241967 0.00027004 3.3493 0.00724926 27.4165 6.65969e-05 3.66793e-06
-0.0224683 0.00027004 3.26421 0.00758825 28.0545 6.60827e-05 3.56047e-06
-0.02074 0.00027004 3.17472 0.00796282 28.7124 6.5538e-05 3.44909e-06
-0.0190117 0.00027004 3.0808 0.00835323 29.4012 6.49562e-05 3.33286e-06
-0.0172833 0.00027004 2.98167 0.00879229 30.1094 6.43378e-05 3.21241e-06
-0.015555 0.00027004 2.87738 0.00924701 30.8531 6.36731e-05 3.08641e-06
-0.0138267 0.00027004 2.76685 0.00977088 31.6144 6.29637e-05 2.95588e-06
-0.0120983 0.00027004 2.65022 0.0103078 32.4171 6.21953e-05 2.81901e-06
-0.01037 0.00027004 2.52594 0.0109492 33.2345 6.13712e-05 2.6773e-06
-0.00864167 0.00027004 2.39426 0.0115927 34.1008 6.0472e-05 2.52858e-06
-0.00691333 0.00027004 2.253 0.0124172 34.9773 5.95022e-05 2.37493e-06
-0.005185 0.00027004 2.10237 0.0131717 35.9112 5.84418e-05 2.21475e-06
-0.00345667 0.00027004 1.93988 0.0142418 36.8502 5.72988e-05 2.05098e-06
-0.00172833 0.00027004 1.76588 0.0148199 37.8513 5.60504e-05 1.88231e-06
0 0.00027004 1.55956 0.021907 38.8578 5.47463e-05 1.71708e-06
-0.0864167 0.000330114 5.40585 0.00286547 15.6154 0.000101746 1.75093e-05
-0.0846883 0.000330114 5.41098 0.0108532 15.969 8.78572e-05 1.03699e-05
-0.08296 0.000330114 5.47129 -0.00269184 15.9002 9.37458e-05 1.31097e-05
-0.0812317 0.000330114 5.53044 -0.00603883 16.2699 9.47365e-05 1.36118e-05
-0.0795033 0.000330114 5.57785 -0.00488118 16.4267 9.39774e-05 1.32261e-05
-0.077775 0.000330114 5.59542 -0.00177197 16.6893 9.27404e-05 1.26125e-05
-0.0760467 0.000330114 5.59521 0.000462376 16.8139 9.17678e-05 1.21431e-05
-0.0743183 0.000330114 5.57953 0.00214604 17.0047 9.11453e-05 1.18486e-05
-0.07259 0.000330114 5.55735 0.00296026 17.1369 9.0754e-05 1.16659e-05
-0.0708617 0.000330114 5.52949 0.00350508 17.323 9.05025e-05 1.15494e-05
-0.0691333 0.000330114 5.49967 0.00374888 17.4862 9.03058e-05 1.14589e-05
-0.067405 0.000330114 5.46731 0.00396264 17.6896 9.0138e-05 1.1382e-05
-0.0656767 0.000330114 5.43393 0.00409427 17.8853 8.99727e-05 1.13065e-05
-0.0639483 0.000330114 5.3988 0.0042489 18.111 8.9809e-05 1.12322e-05
-0.06222 0.000330114 5.36264 0.00438031 18.3372 8.96378e-05 1.11547e-05
-0.0604917 0.000330114 5.3249 0.00453545 18.5872 8.94619e-05 1.10755e-05
-0.0587633 0.000330114 5.28595 0.00468418 18.8428 8.92767e-05 1.09925e-05
-0.057035 0.000330114 5.2454 0.00485147 19.1187 8.90843e-05 1.09067e-05
-0.0553067 0.000330114 5.20345 0.00501927 19.4036 8.88819e-05 1.0817e-05
-0.0535783 0.000330114 5.15981 0.00520219 19.707 8.86706e-05 1.07238e-05
-0.05185 0.000330114 5.11457 0.00538961 20.0217 8.84485e-05 1.06264e-05
-0.0501217 0.000330114 5.06752 0.00559044 20.3541 8.82162e-05 1.05251e-05
-0.0483933 0.000330114 5.01866 0.0057986 20.6996 8.79722e-05 1.04194e-05
-0.046665 0.000330114 4.96783 0.00601964 21.0627 8.77166e-05 1.03095e-05
-0.0449367 0.000330114 4.91498 0.00625043 21.4404 8.74484e-05 1.01949e-05
-0.0432083 0.000330114 4.85996 0.00649437 21.8359 8.71671e-05 1.00756e-05
-0.04148 0.000330114 4.80269 0.00675049 22.2472 8.68718e-05 9.95147e-06
-0.0397517 0.000330114 4.74302 0.0070207 22.6771 8.6562e-05 9.82225e-06
-0.0380233 0.000330114 4.68083 0.00730582 23.1239 8.62366e-05 9.68777e-06
-0.036295 0.000330114 4.61597 0.00760649 23.5902 8.58948e-05 9.54779e-06
-0.0345667 0.000330114 4.54829 0.00792539 24.0744 8.55357e-05 9.40218e-06
-0.0328383 0.000330114 4.47762 0.00826181 24.5795 8.51578e-05 9.25054e-06
-0.03111 0.000330114 4.40374 0.00862071 25.1034 8.47605e-05 9.09285e-06
-0.0293817 0.000330114 4.3265 0.0089996 25.6499 8.43414e-05 8.9285e-06
-0.0276533 0.000330114 4.2456 0.00940659 26.2158 8.39002e-05 8.7576e-06
-0.025925 0.000330114 4.16089 0.00983655 26.8064 8.34336e-05 8.57926e-06
-0.0241967 0.000330114 4.07197 0.0103023 27.417 8.29415e-05 8.3938e-06
-0.0224683 0.000330114 3.97868 0.0107945 28.0549 8.24191e-05 8.1999e-06
-0.02074 0.000330114 3.88046 0.0113334 28.7129 8.18669e-05 7.99824e-06
-0.0190117 0.000330114 3.7772 0.0119028 29.4018 8.12778e-05 7.78682e-06
-0.0172833 0.000330114 3.66812 0.0125349 30.1099 8.06534e-05 7.56684e-06
-0.015555 0.000330114 3.55312 0.0132016 30.8536 7.9983e-05 7.33541e-06
-0.0138267 0.000330114 3.43112 0.0139564 31.6149 7.92696e-05 7.09442e-06
-0.0120983 0.000330114 3.30205 0.0147488 32.4177 7.84974e-05 6.83973e-06
-0.01037 0.000330114 3.16437 0.0156735 33.2351 7.7671e-05 6.57411e-06
-0.00864167 0.000330114 3.01804 0.01663 34.1015 7.67681e-05 6.29208e-06
-0.00691333 0.000330114 2.86082 0.0178113 34.9779 7.57933e-05 5.99701e-06
-0.005185 0.000330114 2.69257 0.018957 35.912 7.472e-05 5.68328e-06
-0.00345667 0.000330114 2.51052 0.0204653 36.8509 7.35474e-05 5.35373e-06
-0.00172833 0.000330114 2.31432 0.0215884 37.8526 7.22172e-05 4.99617e-06
0 0.000330114 2.08138 0.0309748 38.8583 7.07816e-05 4.6293e-06
-0.0864167 0.000392386 6.05557 0.00370159 15.438 0.000115079 2.66075e-05
-0.0846883 0.000392386 6.09068 0.00815357 16.0098 0.000107413 2.11065e-05
-0.08296 0.000392386 6.17257 -0.00498026 15.8937 0.000113486 2.5405e-05
-0.0812317 0.000392386 6.23209 -0.00808687 16.2717 0.000114693 2.63134e-05
-0.0795033 0.000392386 6.27698 -0.00599934 16.4249 0.00011335 2.53037e-05
-0.077775 0.000392386 6.2941 -0.00203711 16.6881 0.000111426 2.38957e-05
-0.0760467 0.000392386 6.29441 0.00078523 16.8133 0.000109878 2.27964e-05
-0.0743183 0.000392386 6.27977 0.00284798 17.0043 0.000108875 2.20999e-05
-0.07259 0.000392386 6.25817 0.00387831 17.1369 0.000108257 2.16765e-05
-0.0708617 0.000392386 6.23061 0.00455618 17.3232 0.000107877 2.14192e-05
-0.0691333 0.000392386 6.20059 0.00488503 17.4865 0.000107609 2.12382e-05
-0.067405 0.000392386 6.16781 0.00516291 17.6899 0.0001074 2.10982e-05
-0.0656767 0.000392386 6.1337 0.005349 17.8856 0.000107211 2.09718e-05
-0.0639483 0.000392386 6.0977 0.00555441 18.1114 0.000107034 2.08535e-05
-0.06222 0.000392386 6.06049 0.00573654 18.3376 0.000106855 2.07346e-05
-0.0604917 0.000392386 6.0216 0.00594292 18.5876 0.000106675 2.06154e-05
-0.0587633 0.000392386 5.98136 0.00614513 18.8432 0.000106488 2.04921e-05
-0.057035 0.000392386 5.93945 0.00636771 19.1191 0.000106295 2.03656e-05
-0.0553067 0.000392386 5.89602 0.00659372 19.404 0.000106094 2.02336e-05
-0.0535783 0.000392386 5.85082 0.00683729 19.7074 0.000105884 2.00968e-05
-0.05185 0.000392386 5.80392 0.00708863 20.0221 0.000105664 1.99539e-05
-0.0501217 0.000392386 5.75511 0.00735633 20.3545 0.000105434 1.98051e-05
-0.0483933 0.000392386 5.7044 0.00763495 20.7001 0.000105193 1.96496e-05
-0.046665 0.000392386 5.65161 0.00792991 21.0632 0.00010494 1.94874e-05
-0.0449367 0.000392386 5.59669 0.00823862 21.4409 0.000104674 1.93181e-05
-0.0432083 0.000392386 5.53949 0.00856454 21.8364 0.000104396 1.91414e-05
-0.04148 0.000392386 5.47992 0.00890716 22.2478 0.000104103 1.8957e-05
-0.0397517 0.000392386 5.41782 0.00926865 22.6776 0.000103796 1.87645e-05
-0.0380233 0.000392386 5.35306 0.00965026 23.1245 0.000103474 1.85638e-05
-0.036295 0.000392386 5.28549 0.0100531 23.5908 0.000103136 1.83543e-05
-0.0345667 0.000392386 5.21493 0.0104803 24.0751 0.00010278 1.81358e-05
-0.0328383 0.000392386 5.14121 0.0109318 24.5802 0.000102406 1.79078e-05
-0.03111 0.000392386 5.06411 0.011413 25.1041 0.000102014 1.767e-05
-0.0293817 0.000392386 4.98344 0.0119225 25.6506 0.0001016 1.74216e-05
-0.0276533 0.000392386 4.89891 0.0124688 26.2165 0.000101165 1.71628e-05
-0.025925 0.000392386 4.81032 0.0130484 26.8072 0.000100705 1.6892e-05
-0.0241967 0.000392386 4.71726 0.0136744 27.4177 0.000100222 1.66098e-05
-0.0224683 0.000392386 4.61954 0.0143397 28.0557 9.97095e-05 1.6314e-05
-0.02074 0.000392386 4.5166 0.015065 28.7137 9.91694e-05 1.60058e-05
-0.0190117 0.000392386 4.40825 0.0158373 29.4026 9.85949e-05 1.56818e-05
-0.0172833 0.000392386 4.29371 0.0166893 30.1108 9.79879e-05 1.5344e-05
-0.015555 0.000392386 4.17279 0.0175974 30.8546 9.73385e-05 1.49876e-05
-0.0138267 0.000392386 4.04442 0.0186164 31.6159 9.66505e-05 1.46157e-05
-0.0120983 0.000392386 3.90838 0.0197016 32.4187 9.59089e-05 1.42214e-05
-0.01037 0.000392386 3.76315 0.0209527 33.2362 9.51195e-05 1.38091e-05
-0.00864167 0.000392386 3.60847 0.0222751 34.1026 9.42609e-05 1.33693e-05
-0.00691333 0.000392386 3.44213 0.0238758 34.979 9.33393e-05 1.29072e-05
-0.005185 0.000392386 3.26365 0.025493 35.9132 9.23287e-05 1.24124e-05
-0.00345667 0.000392386 3.07013 0.0275219 36.852 9.12202e-05 1.18838e-05
-0.00172833 0.000392386 2.86042 0.0293442 37.8543 8.99243e-05 1.12845e-05
0 0.000392386 2.6125 0.0410832 38.8588 8.8445e-05 1.06248e-05
-0.0864167 0.000456934 6.61078 0.00455939 15.2776 0.00012861 3.80261e-05
-0.0846883 0.000456934 6.65312 0.00451727 16.0442 0.000127842 3.73222e-05
-0.08296 0.000456934 6.73693 -0.00745378 15.8901 0.000134415 4.3547e-05
-0.0812317 0.000456934 6.78991 -0.0100065 16.2725 0.000135841 4.49563e-05