TITLE = PHILL
VARIABLES = "X" ,  "Y" , "ue" , "ve", "pe" , "nute" , "nuTe" 
ZONE   N=33012,E=65260,F=FEPOINT,ET=TRIANGLE
-0.101667 0 0 0 0 0 0
-0.0996333 0 0.0607969 -4.17619e-07 6.17061 1.07376e-05 2.62264e-09
-0.0976 0 0.061626 -5.34008e-07 6.21434 1.26133e-05 4.9929e-09
-0.0955667 0 0.061704 2.87509e-07 6.21962 0 0
-0.0935333 0 0.0614088 5.2376e-07 6.22296 0 0
-0.0915 0 0.0609811 5.76909e-07 6.23681 0 0
-0.0894667 0 0.0605277 6.2392e-07 6.25873 0 0
-0.0874333 0 0.0600144 6.51264e-07 6.28964 0 0
-0.0854 0 0.0594972 6.1862e-07 6.32824 0 0
-0.0833667 0 0.0590122 5.65369e-07 6.37432 0 0
-0.0813333 0 0.0585664 5.2546e-07 6.42994 0 0
-0.0793 0 0.0581301 4.99978e-07 6.49353 0 0
-0.0772667 0 0.0577017 4.71111e-07 6.56436 0 0
-0.0752333 0 0.057291 4.34974e-07 6.64369 0 0
-0.0732 0 0.0568956 4.05733e-07 6.73012 0 0
-0.0711667 0 0.056506 3.84374e-07 6.82339 0 0
-0.0691333 0 0.056118 3.71772e-07 6.92595 0 0
-0.0671 0 0.0556992 3.96696e-07 7.0346 0 0
-0.0650667 0 0.0552446 3.95129e-07 7.14973 0 0
-0.0630333 0 0.054786 3.91436e-07 7.27298 0 0
-0.061 0 0.0542887 3.97475e-07 7.40329 0 0
-0.0589667 0 0.0537909 3.45862e-07 7.54291 0 0
-0.0569333 0 0.0533273 2.66339e-07 7.69405 0 0
-0.0549 0 0.0528917 2.35062e-07 7.85407 0 0
-0.0528667 0 0.0524331 2.31865e-07 8.02245 0 0
-0.0508333 0 0.0519405 2.45654e-07 8.20096 0 0
-0.0488 0 0.0513811 2.90011e-07 8.38896 0 0
-0.0467667 0 0.0507538 2.85564e-07 8.58633 0 0
-0.0447333 0 0.0501204 2.57547e-07 8.79356 0 0
-0.0427 0 0.0494595 2.24914e-07 9.01132 0 0
-0.0406667 0 0.0488045 1.68876e-07 9.24194 0 0
-0.0386333 0 0.0481147 1.82133e-07 9.4838 0 0
-0.0366 0 0.0473483 1.95687e-07 9.73532 0 0
-0.0345667 0 0.0465569 1.61594e-07 9.99939 0 0
-0.0325333 0 0.0457196 1.4032e-07 10.2773 0 0
-0.0305 0 0.0448617 8.19992e-08 10.5712 0 0
-0.0284667 0 0.0439699 9.96099e-08 10.8798 0 0
-0.0264333 0 0.0429435 1.48177e-07 11.2034 0 0
-0.0244 0 0.0418384 1.17893e-07 11.5445 0 0
-0.0223667 0 0.040678 8.96339e-08 11.9 0 0
-0.0203333 0 0.0394712 6.05067e-08 12.271 0 0
-0.0183 0 0.0381743 7.76152e-08 12.661 0 0
-0.0162667 0 0.0367622 9.83293e-08 13.0674 0 0
-0.0142333 0 0.0352435 7.02679e-08 13.494 0 0
-0.0122 0 0.0336377 8.96509e-08 13.9423 0 0
-0.0101667 0 0.0318722 1.16389e-07 14.4113 0 0
-0.00813333 0 0.029972 1.16155e-07 14.9051 0 0
-0.0061 0 0.0279383 9.35574e-08 15.4311 0 0
-0.00406667 0 0.0257187 1.42218e-07 15.9819 0 0
-0.00203333 0 0.0233117 7.0998e-07 16.5587 0 0
0 0 0 0 0 0 0
-0.101667 5.02236e-05 0 0 0 0 0
-0.0996333 5.02236e-05 0.984275 -8.27766e-05 12.341 0 0
-0.0976 5.02236e-05 0.994754 -8.33975e-05 12.4285 2.81636e-05 1.2361e-07
-0.0955667 5.02236e-05 0.995416 4.22228e-05 12.4392 2.6419e-05 9.57857e-08
-0.0935333 5.02236e-05 0.990888 7.33474e-05 12.4459 2.65677e-05 9.79538e-08
-0.0915 5.02236e-05 0.984421 8.49716e-05 12.4736 2.65104e-05 9.71131e-08
-0.0894667 5.02236e-05 0.977525 9.56134e-05 12.5175 2.6422e-05 9.5828e-08
-0.0874333 5.02236e-05 0.969666 0.000101945 12.5793 2.63144e-05 9.42806e-08
-0.0854 5.02236e-05 0.961689 9.81961e-05 12.6565 2.62712e-05 9.36653e-08
-0.0833667 5.02236e-05 0.954256 9.06103e-05 12.7486 2.62815e-05 9.3812e-08
-0.0813333 5.02236e-05 0.947487 8.62022e-05 12.8599 2.62844e-05 9.38533e-08
-0.0793 5.02236e-05 0.94082 8.47049e-05 12.987 2.62713e-05 9.36663e-08
-0.0772667 5.02236e-05 0.934268 8.22701e-05 13.1287 2.63145e-05 9.42826e-08
-0.0752333 5.02236e-05 0.928029 7.89963e-05 13.2874 2.63857e-05 9.5304e-08
-0.0732 5.02236e-05 0.921975 7.68171e-05 13.4602 2.64639e-05 9.64358e-08
-0.0711667 5.02236e-05 0.916064 7.55813e-05 13.6468 2.65627e-05 9.78798e-08
-0.0691333 5.02236e-05 0.910179 7.86903e-05 13.8519 2.65916e-05 9.83056e-08
-0.0671 5.02236e-05 0.903722 8.62294e-05 14.0692 2.65965e-05 9.83779e-08
-0.0650667 5.02236e-05 0.896738 8.96226e-05 14.2995 2.65842e-05 9.81965e-08
-0.0630333 5.02236e-05 0.889716 9.36075e-05 14.546 2.65675e-05 9.79502e-08
-0.061 5.02236e-05 0.882084 9.76389e-05 14.8066 2.66026e-05 9.84687e-08
-0.0589667 5.02236e-05 0.874557 9.37459e-05 15.0858 2.66779e-05 9.95852e-08
-0.0569333 5.02236e-05 0.867561 8.70443e-05 15.3881 2.67732e-05 1.01011e-07
-0.0549 5.02236e-05 0.860933 8.74007e-05 15.7081 2.6904e-05 1.02994e-07
-0.0528667 5.02236e-05 0.853952 9.27156e-05 16.0449 2.70574e-05 1.05356e-07
-0.0508333 5.02236e-05 0.846471 0.000101973 16.4019 2.71867e-05 1.07378e-07
-0.0488 5.02236e-05 0.837893 0.000116785 16.7779 2.719e-05 1.0743e-07
-0.0467667 5.02236e-05 0.828235 0.000124243 17.1727 2.71997e-05 1.07583e-07
-0.0447333 5.02236e-05 0.818494 0.000126751 17.5871 2.72702e-05 1.087e-07
-0.0427 5.02236e-05 0.808388 0.00012844 18.0227 2.73645e-05 1.10207e-07
-0.0406667 5.02236e-05 0.798404 0.000130561 18.4839 2.74408e-05 1.11437e-07
-0.0386333 5.02236e-05 0.787769 0.000142997 18.9676 2.75019e-05 1.1243e-07
-0.0366 5.02236e-05 0.775918 0.000152947 19.4707 2.76534e-05 1.1492e-07
-0.0345667 5.02236e-05 0.763776 0.000158592 19.9988 2.77759e-05 1.16963e-07
-0.0325333 5.02236e-05 0.750979 0.000166225 20.5547 2.78787e-05 1.18699e-07
-0.0305 5.02236e-05 0.737864 0.000169685 21.1424 2.80382e-05 1.21431e-07
-0.0284667 5.02236e-05 0.724167 0.000187651 21.7598 2.81443e-05 1.23272e-07
-0.0264333 5.02236e-05 0.708415 0.000209877 22.4069 2.82395e-05 1.24943e-07
-0.0244 5.02236e-05 0.691334 0.000221527 23.0891 2.83208e-05 1.26383e-07
-0.0223667 5.02236e-05 0.673317 0.000232733 23.8 2.84112e-05 1.27999e-07
-0.0203333 5.02236e-05 0.6547 0.000243275 24.5421 2.86013e-05 1.31447e-07
-0.0183 5.02236e-05 0.634596 0.000265565 25.3221 2.88097e-05 1.35307e-07
-0.0162667 5.02236e-05 0.612664 0.000287667 26.135 2.90384e-05 1.3964e-07
-0.0142333 5.02236e-05 0.589233 0.00030478 26.9882 2.9282e-05 1.44367e-07
-0.0122 5.02236e-05 0.564248 0.000329703 27.8847 2.94707e-05 1.4811e-07
-0.0101667 5.02236e-05 0.536901 0.000359099 28.8229 2.96827e-05 1.52401e-07
-0.00813333 5.02236e-05 0.507638 0.00038408 29.8104 3.00379e-05 1.59798e-07
-0.0061 5.02236e-05 0.476145 0.00041393 30.8625 3.04083e-05 1.67794e-07
-0.00406667 5.02236e-05 0.441554 0.000453102 31.9641 3.08178e-05 1.76976e-07
-0.00203333 5.02236e-05 0.404246 0.000561559 33.1178 3.16026e-05 1.95615e-07
0 5.02236e-05 0.355295 0.0015553 34.3538 3.27255e-05 2.24781e-07
-0.101667 0.000102464 0 0 0 0 0
-0.0996333 0.000102464 2.00056 -0.000336139 12.3396 0 0
-0.0976 0.000102464 2.01658 -0.000290423 12.4273 4.59907e-05 8.66226e-07
-0.0955667 0.000102464 2.01693 0.000166647 12.4382 4.45199e-05 7.61954e-07
-0.0935333 0.000102464 2.00838 0.00028516 12.4449 4.45434e-05 7.63542e-07
-0.0915 0.000102464 1.99631 0.000331893 12.4726 4.44772e-05 7.59076e-07
-0.0894667 0.000102464 1.98334 0.000375939 12.5165 4.43393e-05 7.49822e-07
-0.0874333 0.000102464 1.96839 0.000403457 12.5784 4.41665e-05 7.38346e-07
-0.0854 0.000102464 1.95312 0.000388779 12.6556 4.40909e-05 7.33363e-07
-0.0833667 0.000102464 1.93891 0.000357254 12.7477 4.40916e-05 7.33413e-07
-0.0813333 0.000102464 1.92601 0.000339379 12.859 4.40874e-05 7.33138e-07
-0.0793 0.000102464 1.91331 0.000333949 12.9861 4.40667e-05 7.31777e-07
-0.0772667 0.000102464 1.90077 0.00032433 13.1278 4.41302e-05 7.35954e-07
-0.0752333 0.000102464 1.88882 0.000311705 13.2865 4.42387e-05 7.43122e-07
-0.0732 0.000102464 1.87716 0.000302717 13.4593 4.43582e-05 7.51083e-07
-0.0711667 0.000102464 1.86585 0.000296253 13.6458 4.45092e-05 7.61232e-07
-0.0691333 0.000102464 1.8546 0.000310875 13.8509 4.45558e-05 7.64381e-07
-0.0671 0.000102464 1.84214 0.000341436 14.0683 4.45656e-05 7.65046e-07
-0.0650667 0.000102464 1.82874 0.000354344 14.2985 4.45471e-05 7.63792e-07
-0.0630333 0.000102464 1.81526 0.000370787 14.545 4.45297e-05 7.62616e-07
-0.061 0.000102464 1.80062 0.000384373 14.8056 4.45846e-05 7.66338e-07
-0.0589667 0.000102464 1.78636 0.000367233 15.0849 4.46972e-05 7.74003e-07
-0.0569333 0.000102464 1.77303 0.000342228 15.3871 4.48427e-05 7.83999e-07
-0.0549 0.000102464 1.76032 0.000344345 15.7072 4.50388e-05 7.97624e-07
-0.0528667 0.000102464 1.74688 0.000365993 16.0439 4.52633e-05 8.1343e-07
-0.0508333 0.000102464 1.73245 0.000403299 16.4009 4.54553e-05 8.27126e-07
-0.0488 0.000102464 1.71598 0.000462847 16.777 4.54743e-05 8.28491e-07
-0.0467667 0.000102464 1.69739 0.000494552 17.1717 4.54906e-05 8.29662e-07
-0.0447333 0.000102464 1.67852 0.000503933 17.5862 4.55983e-05 8.3744e-07
-0.0427 0.000102464 1.65912 0.000507306 18.0217 4.57421e-05 8.47908e-07
-0.0406667 0.000102464 1.64003 0.000518552 18.4829 4.58534e-05 8.56071e-07
-0.0386333 0.000102464 1.6194 0.000571949 18.9667 4.59449e-05 8.62834e-07
-0.0366 0.000102464 1.59638 0.000609245 19.4697 4.61717e-05 8.79749e-07
-0.0345667 0.000102464 1.57296 0.00063029 19.9979 4.63584e-05 8.93856e-07
-0.0325333 0.000102464 1.54832 0.000659874 20.5537 4.65205e-05 9.06241e-07
-0.0305 0.000102464 1.52312 0.000673717 21.1414 4.67552e-05 9.24397e-07
-0.0284667 0.000102464 1.49671 0.000747563 21.7588 4.69027e-05 9.35938e-07
-0.0264333 0.000102464 1.46633 0.000837107 22.4059 4.70477e-05 9.47391e-07
-0.0244 0.000102464 1.43331 0.000886779 23.0881 4.71843e-05 9.58274e-07
-0.0223667 0.000102464 1.39827 0.000933467 23.7991 4.73213e-05 9.69278e-07
-0.0203333 0.000102464 1.36207 0.000974816 24.5411 4.76056e-05 9.92417e-07
-0.0183 0.000102464 1.32296 0.00106638 25.3211 4.78953e-05 1.0164e-06
-0.0162667 0.000102464 1.28022 0.00115473 26.1341 4.82121e-05 1.04312e-06
-0.0142333 0.000102464 1.23465 0.0012249 26.9873 4.8545e-05 1.07175e-06
-0.0122 0.000102464 1.18594 0.00132392 27.8838 4.88154e-05 1.09542e-06
-0.0101667 0.000102464 1.13292 0.00143965 28.8221 4.91212e-05 1.12265e-06
-0.00813333 0.000102464 1.0762 0.00153906 29.8095 4.96414e-05 1.17011e-06
-0.0061 0.000102464 1.0151 0.00166429 30.8616 5.01692e-05 1.21975e-06
-0.00406667 0.000102464 0.947602 0.00182711 31.9632 5.07415e-05 1.27529e-06
-0.00203333 0.000102464 0.87472 0.00225235 33.1171 5.17238e-05 1.37489e-06
0 0.000102464 0.780604 0.00419034 34.3529 5.31058e-05 1.5245e-06
-0.101667 0.000156802 0 0 0 0 0
-0.0996333 0.000156802 3.01477 -0.000753031 12.3353 0 0
-0.0976 0.000156802 3.03273 -0.000558756 12.4235 6.24596e-05 2.86556e-06
-0.0955667 0.000156802 3.03235 0.000366558 12.4345 6.08274e-05 2.58663e-06
-0.0935333 0.000156802 3.02094 0.000620168 12.4413 6.08091e-05 2.58361e-06
-0.0915 0.000156802 3.00462 0.000726387 12.4692 6.07329e-05 2.57111e-06
-0.0894667 0.000156802 2.98689 0.000826453 12.5131 6.05621e-05 2.54321e-06
-0.0874333 0.000156802 2.96629 0.00089333 12.5751 6.03332e-05 2.50616e-06
-0.0854 0.000156802 2.94499 0.000863985 12.6523 6.02139e-05 2.48701e-06
-0.0833667 0.000156802 2.92509 0.000793349 12.7445 6.01913e-05 2.48339e-06
-0.0813333 0.000156802 2.90695 0.000752866 12.8557 6.01765e-05 2.48103e-06
-0.0793 0.000156802 2.8891 0.000742721 12.9829 6.01527e-05 2.47723e-06
-0.0772667 0.000156802 2.87131 0.000723669 13.1245 6.02249e-05 2.48878e-06
-0.0752333 0.000156802 2.85421 0.000697499 13.2831 6.03546e-05 2.50962e-06
-0.0732 0.000156802 2.83742 0.000677939 13.4559 6.05013e-05 2.53334e-06
-0.0711667 0.000156802 2.82115 0.000660277 13.6424 6.0687e-05 2.56358e-06
-0.0691333 0.000156802 2.80508 0.000695096 13.8475 6.07465e-05 2.57333e-06
-0.0671 0.000156802 2.78725 0.000763774 14.0649 6.07652e-05 2.5764e-06
-0.0650667 0.000156802 2.76818 0.000790443 14.2951 6.07487e-05 2.57369e-06
-0.0630333 0.000156802 2.74902 0.000827945 14.5417 6.07429e-05 2.57274e-06
-0.061 0.000156802 2.72825 0.000854853 14.8022 6.08195e-05 2.58534e-06
-0.0589667 0.000156802 2.7081 0.000815061 15.0814 6.09593e-05 2.60841e-06
-0.0569333 0.000156802 2.68909 0.000764267 15.3836 6.11394e-05 2.63838e-06
-0.0549 0.000156802 2.67076 0.00077203 15.7036 6.13802e-05 2.67882e-06
-0.0528667 0.000156802 2.65127 0.000823271 16.0403 6.16424e-05 2.72336e-06
-0.0508333 0.000156802 2.63026 0.000905429 16.3973 6.18674e-05 2.76199e-06
-0.0488 0.000156802 2.60664 0.0010355 16.7734 6.19154e-05 2.77028e-06
-0.0467667 0.000156802 2.58011 0.00111037 17.1681 6.19449e-05 2.7754e-06
-0.0447333 0.000156802 2.55294 0.0011316 17.5826 6.2077e-05 2.79834e-06
-0.0427 0.000156802 2.52519 0.0011328 18.0181 6.22582e-05 2.83003e-06
-0.0406667 0.000156802 2.49798 0.00116265 18.4793 6.23982e-05 2.8547e-06
-0.0386333 0.000156802 2.46824 0.00129027 18.9631 6.25168e-05 2.8757e-06
-0.0366 0.000156802 2.43494 0.00137172 19.4661 6.27884e-05 2.92425e-06
-0.0345667 0.000156802 2.40116 0.00141469 19.9942 6.30131e-05 2.96485e-06
-0.0325333 0.000156802 2.36579 0.00147973 20.55 6.32245e-05 3.0034e-06
-0.0305 0.000156802 2.32952 0.00151187 21.1376 6.35098e-05 3.05602e-06
-0.0284667 0.000156802 2.29157 0.00167764 21.7549 6.36763e-05 3.08701e-06
-0.0264333 0.000156802 2.24815 0.00187821 22.4021 6.38624e-05 3.12193e-06
-0.0244 0.000156802 2.2008 0.00199745 23.0843 6.40548e-05 3.15833e-06
-0.0223667 0.000156802 2.15022 0.00210807 23.7953 6.42286e-05 3.19147e-06
-0.0203333 0.000156802 2.09782 0.00220119 24.5373 6.45767e-05 3.25857e-06
-0.0183 0.000156802 2.0412 0.00241094 25.3173 6.49017e-05 3.32212e-06
-0.0162667 0.000156802 1.9793 0.00260923 26.1303 6.52579e-05 3.39277e-06
-0.0142333 0.000156802 1.9134 0.00277005 26.9835 6.5622e-05 3.46609e-06
-0.0122 0.000156802 1.84284 0.00298837 27.88 6.59427e-05 3.53159e-06
-0.0101667 0.000156802 1.7666 0.00324335 28.8183 6.63181e-05 3.60938e-06
-0.00813333 0.000156802 1.68489 0.00346862 29.8057 6.69513e-05 3.74334e-06
-0.0061 0.000156802 1.59682 0.0037595 30.8578 6.75804e-05 3.87984e-06
-0.00406667 0.000156802 1.49916 0.00413873 31.9593 6.82375e-05 4.02616e-06
-0.00203333 0.000156802 1.39339 0.00507853 33.1132 6.932e-05 4.27558e-06
0 0.000156802 1.25818 0.00788797 34.3487 7.06784e-05 4.60368e-06
-0.101667 0.000213321 0 0 0 0 0
-0.0996333 0.000213321 3.97953 -0.00129528 12.3265 0 0
-0.0976 0.000213321 3.99721 -0.000847935 12.4153 7.7744e-05 6.59728e-06
-0.0955667 0.000213321 3.99642 0.000617546 12.4267 7.57939e-05 5.99718e-06
-0.0935333 0.000213321 3.98379 0.00104425 12.4338 7.5767e-05 5.98918e-06
-0.0915 0.000213321 3.96504 0.00123805 12.4617 7.56828e-05 5.96416e-06
-0.0894667 0.000213321 3.94425 0.00141388 12.5058 7.54866e-05 5.90619e-06
-0.0874333 0.000213321 3.92005 0.00153893 12.568 7.5208e-05 5.8245e-06
-0.0854 0.000213321 3.89465 0.00149823 12.6453 7.50357e-05 5.77437e-06
-0.0833667 0.000213321 3.87064 0.00137987 12.7375 7.49852e-05 5.75973e-06
-0.0813333 0.000213321 3.84848 0.00131046 12.8487 7.49608e-05 5.75267e-06
-0.0793 0.000213321 3.82661 0.00129837 12.9759 7.49381e-05 5.74611e-06
-0.0772667 0.000213321 3.8045 0.00127309 13.1175 7.50111e-05 5.76722e-06
-0.0752333 0.000213321 3.78294 0.00123271 13.2761 7.5152e-05 5.80817e-06
-0.0732 0.000213321 3.76162 0.00120169 13.4488 7.53152e-05 5.85584e-06
-0.0711667 0.000213321 3.74083 0.00116649 13.6352 7.55243e-05 5.91728e-06
-0.0691333 0.000213321 3.7205 0.0012262 13.8403 7.55957e-05 5.93838e-06
-0.0671 0.000213321 3.69804 0.00134594 14.0577 7.56249e-05 5.94703e-06
-0.0650667 0.000213321 3.67419 0.00138771 14.288 7.56184e-05 5.9451e-06
-0.0630333 0.000213321 3.65029 0.00145401 14.5345 7.56351e-05 5.95003e-06
-0.061 0.000213321 3.62439 0.00149863 14.795 7.57396e-05 5.98103e-06
-0.0589667 0.000213321 3.59923 0.00142994 15.0741 7.59102e-05 6.03188e-06
-0.0569333 0.000213321 3.57519 0.00135169 15.3763 7.61228e-05 6.09565e-06
-0.0549 0.000213321 3.55169 0.00137276 15.6962 7.63992e-05 6.17927e-06
-0.0528667 0.000213321 3.52655 0.00147019 16.0328 7.6679e-05 6.2647e-06
-0.0508333 0.000213321 3.49934 0.00161056 16.3897 7.69199e-05 6.33888e-06
-0.0488 0.000213321 3.4693 0.00182708 16.7657 7.70019e-05 6.36428e-06
-0.0467667 0.000213321 3.43597 0.00196242 17.1604 7.70521e-05 6.37986e-06
-0.0447333 0.000213321 3.40161 0.0020025 17.5749 7.72068e-05 6.42805e-06
-0.0427 0.000213321 3.3666 0.00199654 18.0104 7.74228e-05 6.49573e-06
-0.0406667 0.000213321 3.33228 0.00205533 18.4716 7.76004e-05 6.55174e-06
-0.0386333 0.000213321 3.29457 0.00229183 18.9554 7.77494e-05 6.59902e-06
-0.0366 0.000213321 3.25221 0.002437 19.4583 7.80515e-05 6.69551e-06
-0.0345667 0.000213321 3.20916 0.00250605 19.9863 7.83039e-05 6.77687e-06
-0.0325333 0.000213321 3.16433 0.00262022 20.542 7.85609e-05 6.86042e-06
-0.0305 0.000213321 3.11804 0.00268039 21.1295 7.88824e-05 6.96591e-06
-0.0284667 0.000213321 3.06985 0.00296362 21.7468 7.90637e-05 7.0259e-06
-0.0264333 0.000213321 3.01541 0.00331308 22.3939 7.9299e-05 7.10424e-06
-0.0244 0.000213321 2.95581 0.00353941 23.076 7.95504e-05 7.18863e-06
-0.0223667 0.000213321 2.89167 0.00374763 23.7871 7.97618e-05 7.2601e-06
-0.0203333 0.000213321 2.82488 0.0039153 24.5291 8.01706e-05 7.39968e-06
-0.0183 0.000213321 2.75287 0.00428937 25.3092 8.05089e-05 7.51655e-06
-0.0162667 0.000213321 2.67418 0.00463934 26.1222 8.08841e-05 7.64763e-06
-0.0142333 0.000213321 2.59047 0.0049293 26.9753 8.12619e-05 7.78116e-06
-0.0122 0.000213321 2.50069 0.00530574 27.8718 8.163e-05 7.91275e-06
-0.0101667 0.000213321 2.40436 0.00574687 28.8099 8.20827e-05 8.07666e-06
-0.00813333 0.000213321 2.30086 0.00615302 29.7973 8.28236e-05 8.34979e-06
-0.0061 0.000213321 2.1893 0.00667748 30.8492 8.35449e-05 8.62158e-06
-0.00406667 0.000213321 2.06538 0.00736841 31.9507 8.42807e-05 8.90486e-06
-0.00203333 0.000213321 1.93078 0.00900232 33.1046 8.54519e-05 9.3684e-06
0 0.000213321 1.75979 0.0126026 34.3393 8.68378e-05 9.93725e-06
-0.101667 0.00027211 0 0 0 0 0
-0.0996333 0.00027211 4.8552 -0.00190105 12.3124 0 0
-0.0976 0.00027211 4.87116 -0.00113684 12.4021 9.23798e-05 1.24371e-05
-0.0955667 0.00027211 4.87045 0.000884058 12.414 8.99511e-05 1.12967e-05
-0.0935333 0.00027211 4.8582 0.00151092 12.4214 8.99431e-05 1.12931e-05
-0.0915 0.00027211 4.83891 0.00182466 12.4495 8.98482e-05 1.12499e-05
-0.0894667 0.00027211 4.81678 0.00209238 12.4939 8.96256e-05 1.11492e-05
-0.0874333 0.00027211 4.79111 0.00228952 12.5562 8.93029e-05 1.10042e-05
-0.0854 0.00027211 4.76386 0.00224747 12.6338 8.90775e-05 1.09037e-05
-0.0833667 0.00027211 4.7376 0.00208439 12.7261 8.89992e-05 1.0869e-05
-0.0813333 0.00027211 4.71283 0.00198735 12.8373 8.89644e-05 1.08535e-05
-0.0793 0.00027211 4.68811 0.00198139 12.9645 8.89418e-05 1.08435e-05
-0.0772667 0.00027211 4.66272 0.00195883 13.1061 8.90089e-05 1.08733e-05
-0.0752333 0.00027211 4.63757 0.00190723 13.2646 8.91583e-05 1.09397e-05
-0.0732 0.00027211 4.61256 0.00186786 13.4372 8.93348e-05 1.10185e-05
-0.0711667 0.00027211 4.58782 0.00181238 13.6235 8.95628e-05 1.11209e-05
-0.0691333 0.00027211 4.56381 0.00189553 13.8286 8.96507e-05 1.11605e-05
-0.0671 0.00027211 4.53757 0.00207604 14.0459 8.96906e-05 1.11786e-05
-0.0650667 0.00027211 4.50985 0.00213222 14.2762 8.96995e-05 1.11826e-05
-0.0630333 0.00027211 4.4821 0.0022336 14.5227 8.9746e-05 1.12036e-05
-0.061 0.00027211 4.4521 0.00230203 14.7832 8.98789e-05 1.12639e-05
-0.0589667 0.00027211 4.42273 0.00220347 15.0622 9.00862e-05 1.13583e-05
-0.0569333 0.00027211 4.39431 0.00210145 15.3642 9.03407e-05 1.14749e-05
-0.0549 0.00027211 4.36614 0.0021464 15.684 9.06551e-05 1.162e-05
-0.0528667 0.00027211 4.33593 0.00230789 16.0205 9.09449e-05 1.17548e-05
-0.0508333 0.00027211 4.30312 0.00251825 16.3773 9.11931e-05 1.18711e-05
-0.0488 0.00027211 4.26743 0.00282724 16.7533 9.1307e-05 1.19247e-05
-0.0467667 0.00027211 4.22842 0.00303468 17.1479 9.13805e-05 1.19593e-05
-0.0447333 0.00027211 4.18808 0.0031012 17.5623 9.15664e-05 1.20473e-05
-0.0427 0.00027211 4.14702 0.00308575 17.9978 9.18287e-05 1.21721e-05
-0.0406667 0.00027211 4.10659 0.00318475 18.459 9.20579e-05 1.22819e-05
-0.0386333 0.00027211 4.06213 0.00356 18.9428 9.22398e-05 1.23694e-05
-0.0366 0.00027211 4.01226 0.00379123 19.4457 9.25731e-05 1.25309e-05
-0.0345667 0.00027211 3.96124 0.00389182 19.9735 9.28577e-05 1.26699e-05
-0.0325333 0.00027211 3.90836 0.00406964 20.529 9.31598e-05 1.28184e-05
-0.0305 0.00027211 3.85326 0.00417052 21.1163 9.35046e-05 1.29893e-05
-0.0284667 0.00027211 3.79622 0.00458121 21.7335 9.37077e-05 1.30907e-05
-0.0264333 0.00027211 3.7329 0.00510784 22.3805 9.40113e-05 1.32431e-05
-0.0244 0.00027211 3.66334 0.00548345 23.0627 9.43205e-05 1.33995e-05
-0.0223667 0.00027211 3.58793 0.00582803 23.7737 9.45733e-05 1.35282e-05
-0.0203333 0.00027211 3.50882 0.00609441 24.5157 9.50526e-05 1.37745e-05
-0.0183 0.00027211 3.42405 0.00666821 25.2958 9.54024e-05 1.3956e-05
-0.0162667 0.00027211 3.3316 0.00720823 26.1088 9.57954e-05 1.41616e-05
-0.0142333 0.00027211 3.23319 0.00766791 26.9618 9.61887e-05 1.43693e-05
-0.0122 0.00027211 3.12725 0.00823684 27.8582 9.66161e-05 1.45973e-05
-0.0101667 0.00027211 3.01431 0.00890379 28.7962 9.71705e-05 1.48963e-05
-0.00813333 0.00027211 2.89269 0.00954686 29.7834 9.80288e-05 1.53666e-05
-0.0061 0.00027211 2.76159 0.0103661 30.8352 9.88504e-05 1.58254e-05
-0.00406667 0.00027211 2.61598 0.0114579 31.9365 9.96766e-05 1.62952e-05
-0.00203333 0.00027211 2.4576 0.0139368 33.0903 0.000100962 1.70431e-05
0 0.00027211 2.25723 0.0182768 34.324 0.000102439 1.79278e-05
-0.101667 0.000333259 0 0 0 0 0
-0.0996333 0.000333259 5.62195 -0.00250892 12.293 0 0
-0.0976 0.000333259 5.63523 -0.00141058 12.3837 0.000106839 2.07242e-05
-0.0955667 0.000333259 5.63481 0.00113645 12.3962 0.000103719 1.87163e-05
-0.0935333 0.000333259 5.62391 0.001977 12.4041 0.000103753 1.87373e-05
-0.0915 0.000333259 5.6055 0.00244235 12.4325 0.000103645 1.86699e-05
-0.0894667 0.000333259 5.58346 0.00281608 12.4771 0.000103395 1.85148e-05
-0.0874333 0.000333259 5.55801 0.00309056 12.5398 0.000103039 1.82946e-05
-0.0854 0.000333259 5.53084 0.00305989 12.6177 0.00010277 1.81295e-05
-0.0833667 0.000333259 5.50407 0.00286701 12.7101 0.000102663 1.80642e-05
-0.0813333 0.000333259 5.47804 0.00275411 12.8213 0.000102614 1.80343e-05
-0.0793 0.000333259 5.45156 0.00276828 12.9485 0.000102585 1.80167e-05
-0.0772667 0.000333259 5.42396 0.00276149 13.0902 0.000102639 1.80496e-05
-0.0752333 0.000333259 5.39614 0.00270406 13.2485 0.000102797 1.81462e-05
-0.0732 0.000333259 5.36843 0.00266241 13.421 0.000102991 1.8265e-05
-0.0711667 0.000333259 5.34051 0.00259171 13.6072 0.000103238 1.84173e-05
-0.0691333 0.000333259 5.31337 0.00269207 13.8121 0.000103352 1.84877e-05
-0.0671 0.000333259 5.28419 0.00293884 14.0294 0.000103406 1.85212e-05
-0.0650667 0.000333259 5.25347 0.00300925 14.2597 0.000103437 1.85404e-05
-0.0630333 0.000333259 5.22265 0.00315038 14.5062 0.000103518 1.85912e-05
-0.061 0.000333259 5.18952 0.00324977 14.7666 0.000103673 1.86878e-05
-0.0589667 0.000333259 5.15672 0.00312681 15.0455 0.000103919 1.88415e-05
-0.0569333 0.000333259 5.12453 0.00300899 15.3474 0.00010423 1.90368e-05
-0.0549 0.000333259 5.09218 0.00308856 15.6671 0.000104589 1.92636e-05
-0.0528667 0.000333259 5.05767 0.00332772 16.0034 0.000104889 1.94551e-05
-0.0508333 0.000333259 5.02017 0.00361996 16.3601 0.00010514 1.96155e-05
-0.0488 0.000333259 4.97975 0.00402241 16.7359 0.000105285 1.9709e-05
-0.0467667 0.000333259 4.93615 0.00430891 17.1305 0.00010538 1.977e-05
-0.0447333 0.000333259 4.89093 0.00440822 17.5448 0.000105612 1.99198e-05
-0.0427 0.000333259 4.84493 0.00438573 17.9802 0.000105945 2.01367e-05
-0.0406667 0.000333259 4.79929 0.00453708 18.4414 0.00010624 2.03295e-05
-0.0386333 0.000333259 4.74927 0.00507094 18.9252 0.000106456 2.04713e-05
-0.0366 0.000333259 4.69354 0.00541041 19.428 0.000106834 2.07209e-05
-0.0345667 0.000333259 4.63596 0.00555257 19.9556 0.000107164 2.094e-05
-0.0325333 0.000333259 4.57648 0.00580777 20.5109 0.000107512 2.1173e-05
-0.0305 0.000333259 4.51406 0.00596622 21.098 0.000107874 2.14171e-05
-0.0284667 0.000333259 4.44956 0.00650351 21.7149 0.000108113 2.1579e-05
-0.0264333 0.000333259 4.37919 0.00722332 22.362 0.000108507 2.18476e-05
-0.0244 0.000333259 4.30192 0.00778959 23.044 0.000108871 2.20968e-05
-0.0223667 0.000333259 4.21766 0.00831399 23.755 0.000109169 2.23027e-05
-0.0203333 0.000333259 4.12837 0.00870353 24.4971 0.000109732 2.26945e-05
-0.0183 0.000333259 4.03348 0.00949624 25.2771 0.000110112 2.29606e-05
-0.0162667 0.000333259 3.93043 0.0102592 26.0901 0.00011054 2.32629e-05
-0.0142333 0.000333259 3.82063 0.0109326 26.943 0.000110962 2.35636e-05
-0.0122 0.000333259 3.70165 0.0117296 27.8393 0.000111469 2.3927e-05
-0.0101667 0.000333259 3.57541 0.0126542 28.7772 0.00011216 2.44277e-05
-0.00813333 0.000333259 3.4394 0.0135864 29.7641 0.000113146 2.51526e-05
-0.0061 0.000333259 3.29276 0.0147535 30.8155 0.00011409 2.5857e-05
-0.00406667 0.000333259 3.13003 0.0163241 31.9167 0.000115033 2.65721e-05
-0.00203333 0.000333259 2.95299 0.0197614 33.0703 0.000116484 2.76931e-05
0 0.000333259 2.73003 0.0248463 34.3027 0.000118117 2.89854e-05
-0.101667 0.000396864 0 0 0 0 0
-0.0996333 0.000396864 6.27895 -0.00307619 12.2688 0 0
-0.0976 0.000396864 6.28902 -0.00165351 12.3606 0.000121553 3.1807e-05
-0.0955667 0.000396864 6.28869 0.00136192 12.3738 0.000117439 2.8445e-05
-0.0935333 0.000396864 6.27939 0.00241477 12.3822 0.000117535 2.85214e-05
-0.0915 0.000396864 6.26265 0.00305602 12.411 0.000117416 2.84268e-05
-0.0894667 0.000396864 6.24162 0.00354943 12.4559 0.000117145 2.82123e-05
-0.0874333 0.000396864 6.21737 0.00389891 12.519 0.000116771 2.79177e-05
-0.0854 0.000396864 6.19151 0.00389039 12.5972 0.000116471 2.76832e-05
-0.0833667 0.000396864 6.16548 0.0036895 12.6898 0.000116336 2.75776e-05
-0.0813333 0.000396864 6.1393 0.00358144 12.8011 0.000116271 2.75275e-05
-0.0793 0.000396864 6.11201 0.00363435 12.9284 0.000116227 2.74927e-05
-0.0772667 0.000396864 6.08317 0.00365874 13.07 0.000116257 2.7516e-05
-0.0752333 0.000396864 6.05358 0.00360292 13.2282 0.00011642 2.76437e-05
-0.0732 0.000396864 6.02406 0.00356607 13.4005 0.000116641 2.78162e-05
-0.0711667 0.000396864 5.99381 0.00349393 13.5866 0.000116912 2.80292e-05
-0.0691333 0.000396864 5.96409 0.00360462 13.7914 0.000117059 2.8145e-05
-0.0671 0.000396864 5.93269 0.00391786 14.0086 0.000117133 2.82033e-05
-0.0650667 0.000396864 5.89977 0.00400452 14.2389 0.000117197 2.82533e-05
-0.0630333 0.000396864 5.86657 0.0041881 14.4853 0.000117316 2.83474e-05
-0.061 0.000396864 5.83122 0.00432484 14.7457 0.000117487 2.84831e-05
-0.0589667 0.000396864 5.79574 0.00419012 15.0245 0.000117771 2.8709e-05
-0.0569333 0.000396864 5.76036 0.00406874 15.3263 0.000118154 2.90152e-05
-0.0549 0.000396864 5.72436 0.00419205 15.6457 0.000118564 2.93445e-05
-0.0528667 0.000396864 5.68629 0.00451386 15.9819 0.00011888 2.95999e-05
-0.0508333 0.000396864 5.64518 0.00489811 16.3383 0.000119128 2.98015e-05
-0.0488 0.000396864 5.60108 0.00539443 16.714 0.000119309 2.99486e-05
-0.0467667 0.000396864 5.55395 0.00576689 17.1086 0.000119424 3.00425e-05
-0.0447333 0.000396864 5.50476 0.00590653 17.5228 0.000119718 3.0283e-05
-0.0427 0.000396864 5.45469 0.00588338 17.9581 0.000120155 3.06423e-05
-0.0406667 0.000396864 5.40465 0.0060977 18.4192 0.000120532 3.09538e-05
-0.0386333 0.000396864 5.35013 0.0067998 18.903 0.000120782 3.11617e-05
-0.0366 0.000396864 5.28999 0.00726606 19.4057 0.000121226 3.15324e-05
-0.0345667 0.000396864 5.22725 0.00746439 19.933 0.000121614 3.18587e-05
-0.0325333 0.000396864 5.16261 0.00780721 20.4881 0.000122014 3.21959e-05
-0.0305 0.000396864 5.09442 0.008045 21.0749 0.000122404 3.25268e-05
-0.0284667 0.000396864 5.02373 0.00870696 21.6917 0.000122696 3.27758e-05
-0.0264333 0.000396864 4.94776 0.00962277 22.3386 0.000123204 3.32112e-05
-0.0244 0.000396864 4.86475 0.0104137 23.0206 0.000123616 3.35674e-05
-0.0223667 0.000396864 4.7739 0.0111641 23.7316 0.000123959 3.38645e-05
-0.0203333 0.000396864 4.67655 0.011704 24.4737 0.00012462 3.4441e-05
-0.0183 0.000396864 4.57378 0.0127197 25.2537 0.000125067 3.48342e-05
-0.0162667 0.000396864 4.46286 0.0137294 26.0666 0.00012557 3.52789e-05
-0.0142333 0.000396864 4.34469 0.0146629 26.9194 0.000126049 3.57048e-05
-0.0122 0.000396864 4.21557 0.0157295 27.8156 0.000126648 3.62416e-05
-0.0101667 0.000396864 4.07886 0.0169358 28.7531 0.00012751 3.70203e-05
-0.00813333 0.000396864 3.9319 0.0181997 29.7398 0.000128642 3.80558e-05
-0.0061 0.000396864 3.77339 0.0197629 30.7908 0.000129745 3.90775e-05
-0.00406667 0.000396864 3.5976 0.0218797 31.8917 0.000130842 4.01077e-05
-0.00203333 0.000396864 3.40634 0.0263492 33.0451 0.000132523 4.1709e-05
0 0.000396864 3.16718 0.0322378 34.276 0.000134367 4.35e-05
-0.101667 0.000463023 0 0 0 0 0
-0.0996333 0.000463023 6.83679 -0.00358038 12.2405 0 0
-0.0976 0.000463023 6.84348 -0.00185051 12.3335 0.000136939 4.60555e-05
-0.0955667 0.000463023 6.84292 0.00156236 12.3474 0.000131383 4.062e-05
-0.0935333 0.000463023 6.83502 0.0028141 12.3565 0.00013157 4.07972e-05
-0.0915 0.000463023 6.82011 0.00364512 12.3857 0.000131449 4.06822e-05
-0.0894667 0.000463023 6.80053 0.00427096 12.4309 0.000131163 4.04111e-05
-0.0874333 0.000463023 6.77786 0.00468891 12.4944 0.000130787 4.00558e-05
-0.0854 0.000463023 6.75387 0.00470884 12.573 0.000130471 3.97574e-05
-0.0833667 0.000463023 6.72925 0.00452284 12.6658 0.000130314 3.96104e-05
-0.0813333 0.000463023 6.70363 0.00444479 12.7772 0.000130239 3.95396e-05
-0.0793 0.000463023 6.67625 0.00455621 12.9045 0.000130165 3.94701e-05
-0.0772667 0.000463023 6.647 0.00462744 13.0462 0.000130151 3.94579e-05
-0.0752333 0.000463023 6.61646 0.00458373 13.2042 0.000130315 3.96112e-05
-0.0732 0.000463023 6.58583 0.00456001 13.3763 0.000130578 3.98582e-05
-0.0711667 0.000463023 6.55401 0.00450529 13.5623 0.00013088 4.01435e-05
-0.0691333 0.000463023 6.52228 0.00462239 13.767 0.000131058 4.03116e-05
-0.0671 0.000463023 6.48926 0.00499728 13.9841 0.000131156 4.04044e-05
-0.0650667 0.000463023 6.45483 0.00510411 14.2144 0.000131266 4.05087e-05
-0.0630333 0.000463023 6.41987 0.00533063 14.4607 0.000131425 4.06594e-05
-0.061 0.000463023 6.38306 0.00550946 14.721 0.00013162 4.08447e-05
-0.0589667 0.000463023 6.34561 0.00538198 14.9998 0.000131941 4.11516e-05
-0.0569333 0.000463023 6.30762 0.00527384 15.3014 0.000132416 4.16062e-05
-0.0549 0.000463023 6.26849 0.00544845 15.6206 0.000132886 4.20595e-05
-0.0528667 0.000463023 6.22753 0.00584805 15.9565 0.000133224 4.23866e-05
-0.0508333 0.000463023 6.18384 0.0063305 16.3128 0.000133465 4.26196e-05
-0.0488 0.000463023 6.13705 0.00692196 16.6883 0.000133681 4.28304e-05
-0.0467667 0.000463023 6.08741 0.00739032 17.083 0.000133824 4.29694e-05
-0.0447333 0.000463023 6.03502 0.00758348 17.4971 0.000134196 4.33324e-05